ITEM: TIMESTEP
0
ITEM: NUMBER OF ATOMS
200
ITEM: BOX BOUNDS xy xz yz pp pp pp
0.0000000000000000e+00 2.1901782461708454e+01 0.0000000000000000e+00
0.0000000000000000e+00 1.2645000000000000e+01 0.0000000000000000e+00
0.0000000000000000e+00 1.3650000000000000e+01 0.0000000000000000e+00
ITEM: ATOMS id type x y z fx fy fz
1 1 0 0 5 0.00826353 4.41551e-14 0.130166
2 1 0.730059 1.2645 5 -0.00826353 -4.99287e-14 0.130166
3 1 2.19018 1.2645 5 0.00826353 -5.6173e-14 0.130166
4 1 2.92024 0 5 -0.00826353 -4.58666e-14 0.130166
5 1 4.38036 0 5 0.00826353 -3.24258e-14 0.130166
6 1 5.11042 1.2645 5 -0.00826353 -6.05068e-14 0.130166
7 1 6.57053 1.2645 5 0.00826353 -4.90474e-14 0.130166
8 1 7.30059 0 5 -0.00826353 -3.92576e-14 0.130166
9 1 8.76071 0 5 0.00826353 -4.72442e-14 0.130166
10 1 9.49077 1.2645 5 -0.00826353 7.17727e-15 0.130166
11 1 10.9509 1.2645 5 0.00826353 -3.7297e-14 0.130166
12 1 11.681 0 5 -0.00826353 -2.74731e-14 0.130166
13 1 13.1411 0 5 0.00826353 7.88265e-15 0.130166
14 1 13.8711 1.2645 5 -0.00826353 5.4339e-14 0.130166
15 1 15.3312 1.2645 5 0.00826353 6.02634e-14 0.130166
16 1 16.0613 0 5 -0.00826353 7.57728e-14 0.130166
17 1 17.5214 0 5 0.00826353 5.81818e-14 0.130166
18 1 18.2515 1.2645 5 -0.00826353 7.03799e-14 0.130166
19 1 19.7116 1.2645 5 0.00826353 1.57988e-14 0.130166
20 1 20.4417 0 5 -0.00826353 4.9971e-14 0.130166
21 1 0 2.529 5 0.00826353 4.02551e-14 0.130166
22 1 0.730059 3.7935 5 -0.00826353 4.12567e-14 0.130166
23 1 2.19018 3.7935 5 0.00826353 6.33425e-14 0.130166
24 1 2.92024 2.529 5 -0.00826353 -3.51587e-14 0.130166
25 1 4.38036 2.529 5 0.00826353 -6.76005e-14 0.130166
26 1 5.11042 3.7935 5 -0.00826353 3.07495e-14 0.130166
27 1 6.57053 3.7935 5 0.00826353 -3.68565e-14 0.130166
28 1 7.30059 2.529 5 -0.00826353 1.41139e-15 0.130166
29 1 8.76071 2.529 5 0.00826353 7.00737e-15 0.130166
30 1 9.49077 3.7935 5 -0.00826353 1.21889e-14 0.130166
31 1 10.9509 3.7935 5 0.00826353 -3.95066e-14 0.130166
32 1 11.681 2.529 5 -0.00826353 4.52804e-14 0.130166
33 1 13.1411 2.529 5 0.00826353 3.74437e-14 0.130166
34 1 13.8711 3.7935 5 -0.00826353 1.71471e-14 0.130166
35 1 15.3312 3.7935 5 0.00826353 -1.54283e-15 0.130166
36 1 16.0613 2.529 5 -0.00826353 9.63276e-15 0.130166
37 1 17.5214 2.529 5 0.00826353 1.19607e-13 0.130166
38 1 18.2515 3.7935 5 -0.00826353 -3.08843e-14 0.130166
39 1 19.7116 3.7935 5 0.00826353 1.55662e-14 0.130166
40 1 20.4417 2.529 5 -0.00826353 2.90469e-14 0.130166
41 1 0 5.058 5 0.00826353 -2.84564e-14 0.130166
42 1 0.730059 6.3225 5 -0.00826353 1.15285e-13 0.130166
43 1 2.19018 6.3225 5 0.00826353 1.0701e-13 0.130166
44 1 2.92024 5.058 5 -0.00826353 1.65679e-15 0.130166
45 1 4.38036 5.058 5 0.00826353 8.25034e-14 0.130166
46 1 5.11042 6.3225 5 -0.00826353 6.68218e-14 0.130166
47 1 6.57053 6.3225 5 0.00826353 1.31353e-13 0.130166
48 1 7.30059 5.058 5 -0.00826353 -1.45598e-14 0.130166
49 1 8.76071 5.058 5 0.00826353 -3.94113e-14 0.130166
50 1 9.49077 6.3225 5 -0.00826353 1.72962e-13 0.130166
51 1 10.9509 6.3225 5 0.00826353 1.37043e-13 0.130166
52 1 11.681 5.058 5 -0.00826353 -8.09542e-15 0.130166
53 1 13.1411 5.058 5 0.00826353 1.09708e-16 0.130166
54 1 13.8711 6.3225 5 -0.00826353 1.94692e-14 0.130166
55 1 15.3312 6.3225 5 0.00826353 2.07333e-14 0.130166
56 1 16.0613 5.058 5 -0.00826353 -3.80458e-14 0.130166
57 1 17.5214 5.058 5 0.00826353 1.49312e-14 0.130166
58 1 18.2515 6.3225 5 -0.00826353 2.71206e-14 0.130166
59 1 19.7116 6.3225 5 0.00826353 4.11221e-14 0.130166
60 1 20.4417 5.058 5 -0.00826353 -2.45782e-14 0.130166
61 1 0 7.587 5 0.00826353 -3.29471e-14 0.130166
62 1 0.730059 8.8515 5 -0.00826353 5.44698e-14 0.130166
63 1 2.19018 8.8515 5 0.00826353 -3.86867e-14 0.130166
64 1 2.92024 7.587 5 -0.00826353 -2.75412e-14 0.130166
65 1 4.38036 7.587 5 0.00826353 1.00224e-13 0.130166
66 1 5.11042 8.8515 5 -0.00826353 -1.00099e-14 0.130166
67 1 6.57053 8.8515 5 0.00826353 1.29314e-14 0.130166
68 1 7.30059 7.587 5 -0.00826353 1.66963e-14 0.130166
69 1 8.76071 7.587 5 0.00826353 -6.20641e-15 0.130166
70 1 9.49077 8.8515 5 -0.00826353 7.15206e-17 0.130166
71 1 10.9509 8.8515 5 0.00826353 -1.88289e-14 0.130166
72 1 11.681 7.587 5 -0.00826353 1.27927e-14 0.130166
73 1 13.1411 7.587 5 0.00826353 5.7512e-14 0.130166
74 1 13.8711 8.8515 5 -0.00826353 -2.57031e-14 0.130166
75 1 15.3312 8.8515 5 0.00826353 -8.02932e-14 0.130166
76 1 16.0613 7.587 5 -0.00826353 2.33128e-14 0.130166
77 1 17.5214 7.587 5 0.00826353 -9.87864e-14 0.130166
78 1 18.2515 8.8515 5 -0.00826353 5.14706e-15 0.130166
79 1 19.7116 8.8515 5 0.00826353 4.47645e-15 0.130166
80 1 20.4417 7.587 5 -0.00826353 -6.36505e-14 0.130166
81 1 0 10.116 5 0.00826353 -8.79044e-14 0.130166
82 1 0.730059 11.3805 5 -0.00826353 -3.58404e-14 0.130166
83 1 2.19018 11.3805 5 0.00826353 -6.3101e-14 0.130166
84 1 2.92024 10.116 5 -0.00826353 1.0045e-14 0.130166
85 1 4.38036 10.116 5 0.00826353 3.88084e-14 0.130166
86 1 5.11042 11.3805 5 -0.00826353 -6.6831e-14 0.130166
87 1 6.57053 11.3805 5 0.00826353 -9.58644e-14 0.130166
88 1 7.30059 10.116 5 -0.00826353 4.79643e-14 0.130166
89 1 8.76071 10.116 5 0.00826353 3.99903e-15 0.130166
90 1 9.49077 11.3805 5 -0.00826353 -5.28563e-14 0.130166
91 1 10.9509 11.3805 5 0.00826353 -5.68186e-14 0.130166
92 1 11.681 10.116 5 -0.00826353 -5.92876e-14 0.130166
93 1 13.1411 10.116 5 0.00826353 -3.7301e-14 0.130166
94 1 13.8711 11.3805 5 -0.00826353 -6.80149e-14 0.130166
95 1 15.3312 11.3805 5 0.00826353 -3.63542e-14 0.130166
96 1 16.0613 10.116 5 -0.00826353 -6.70073e-14 0.130166
97 1 17.5214 10.116 5 0.00826353 -9.89768e-14 0.130166
98 1 18.2515 11.3805 5 -0.00826353 -2.29612e-14 0.130166
99 1 19.7116 11.3805 5 0.00826353 -1.00779e-14 0.130166
100 1 20.4417 10.116 5 -0.00826353 -3.71705e-14 0.130166
101 2 0 0 8.65 0.00826353 -1.41949e-14 -0.130166
102 2 0.730059 1.2645 8.65 -0.00826353 -7.90168e-15 -0.130166
103 2 2.19018 1.2645 8.65 0.00826353 -2.57132e-14 -0.130166
104 2 2.92024 0 8.65 -0.00826353 -5.46066e-14 -0.130166
105 2 4.38036 0 8.65 0.00826353 4.76145e-15 -0.130166
106 2 5.11042 1.2645 8.65 -0.00826353 -4.25324e-14 -0.130166
107 2 6.57053 1.2645 8.65 0.00826353 -2.99624e-14 -0.130166
108 2 7.30059 0 8.65 -0.00826353 -4.60231e-14 -0.130166
109 2 8.76071 0 8.65 0.00826353 -6.24748e-14 -0.130166
110 2 9.49077 1.2645 8.65 -0.00826353 -1.61131e-13 -0.130166
111 2 10.9509 1.2645 8.65 0.00826353 -1.13284e-13 -0.130166
112 2 11.681 0 8.65 -0.00826353 2.16529e-14 -0.130166
113 2 13.1411 0 8.65 0.00826353 1.76427e-14 -0.130166
114 2 13.8711 1.2645 8.65 -0.00826353 -3.00784e-14 -0.130166
115 2 15.3312 1.2645 8.65 0.00826353 1.16073e-14 -0.130166
116 2 16.0613 0 8.65 -0.00826353 2.12988e-14 -0.130166
117 2 17.5214 0 8.65 0.00826353 7.09919e-14 -0.130166
118 2 18.2515 1.2645 8.65 -0.00826353 1.94389e-14 -0.130166
119 2 19.7116 1.2645 8.65 0.00826353 -1.91325e-14 -0.130166
120 2 20.4417 0 8.65 -0.00826353 7.38797e-14 -0.130166
121 2 0 2.529 8.65 0.00826353 2.53754e-14 -0.130166
122 2 0.730059 3.7935 8.65 -0.00826353 1.10351e-14 -0.130166
123 2 2.19018 3.7935 8.65 0.00826353 5.94955e-14 -0.130166
124 2 2.92024 2.529 8.65 -0.00826353 -1.83037e-14 -0.130166
125 2 4.38036 2.529 8.65 0.00826353 -1.11958e-14 -0.130166
126 2 5.11042 3.7935 8.65 -0.00826353 -9.87519e-15 -0.130166
127 2 6.57053 3.7935 8.65 0.00826353 -7.7997e-14 -0.130166
128 2 7.30059 2.529 8.65 -0.00826353 -8.66399e-14 -0.130166
129 2 8.76071 2.529 8.65 0.00826353 -2.58227e-14 -0.130166
130 2 9.49077 3.7935 8.65 -0.00826353 -4.15932e-14 -0.130166
131 2 10.9509 3.7935 8.65 0.00826353 -8.95036e-14 -0.130166
132 2 11.681 2.529 8.65 -0.00826353 -7.23121e-14 -0.130166
133 2 13.1411 2.529 8.65 0.00826353 -3.9849e-14 -0.130166
134 2 13.8711 3.7935 8.65 -0.00826353 -7.28405e-14 -0.130166
135 2 15.3312 3.7935 8.65 0.00826353 -8.14682e-14 -0.130166
136 2 16.0613 2.529 8.65 -0.00826353 -3.52121e-14 -0.130166
137 2 17.5214 2.529 8.65 0.00826353 3.54416e-14 -0.130166
138 2 18.2515 3.7935 8.65 -0.00826353 4.9708e-14 -0.130166
139 2 19.7116 3.7935 8.65 0.00826353 5.56988e-14 -0.130166
140 2 20.4417 2.529 8.65 -0.00826353 4.30961e-14 -0.130166
141 2 0 5.058 8.65 0.00826353 2.70607e-14 -0.130166
142 2 0.730059 6.3225 8.65 -0.00826353 1.34072e-13 -0.130166
143 2 2.19018 6.3225 8.65 0.00826353 -2.80313e-14 -0.130166
144 2 2.92024 5.058 8.65 -0.00826353 4.59973e-14 -0.130166
145 2 4.38036 5.058 8.65 0.00826353 3.35111e-14 -0.130166
146 2 5.11042 6.3225 8.65 -0.00826353 6.996e-16 -0.130166
147 2 6.57053 6.3225 8.65 0.00826353 9.91708e-14 -0.130166
148 2 7.30059 5.058 8.65 -0.00826353 8.45714e-14 -0.130166
149 2 8.76071 5.058 8.65 0.00826353 -1.07887e-14 -0.130166
150 2 9.49077 6.3225 8.65 -0.00826353 2.10126e-13 -0.130166
151 2 10.9509 6.3225 8.65 0.00826353 1.07776e-13 -0.130166
152 2 11.681 5.058 8.65 -0.00826353 2.4421e-14 -0.130166
153 2 13.1411 5.058 8.65 0.00826353 -3.51989e-14 -0.130166
154 2 13.8711 6.3225 8.65 -0.00826353 5.95366e-14 -0.130166
155 2 15.3312 6.3225 8.65 0.00826353 7.01347e-14 -0.130166
156 2 16.0613 5.058 8.65 -0.00826353 -6.37447e-14 -0.130166
157 2 17.5214 5.058 8.65 0.00826353 -1.19797e-13 -0.130166
158 2 18.2515 6.3225 8.65 -0.00826353 1.04529e-13 -0.130166
159 2 19.7116 6.3225 8.65 0.00826353 -2.65945e-14 -0.130166
160 2 20.4417 5.058 8.65 -0.00826353 -1.13008e-14 -0.130166
161 2 0 7.587 8.65 0.00826353 -5.09711e-14 -0.130166
162 2 0.730059 8.8515 8.65 -0.00826353 -3.50752e-14 -0.130166
163 2 2.19018 8.8515 8.65 0.00826353 -5.85158e-16 -0.130166
164 2 2.92024 7.587 8.65 -0.00826353 1.48707e-14 -0.130166
165 2 4.38036 7.587 8.65 0.00826353 2.45609e-14 -0.130166
166 2 5.11042 8.8515 8.65 -0.00826353 5.57168e-15 -0.130166
167 2 6.57053 8.8515 8.65 0.00826353 9.52096e-14 -0.130166
168 2 7.30059 7.587 8.65 -0.00826353 -1.63009e-14 -0.130166
169 2 8.76071 7.587 8.65 0.00826353 3.93246e-14 -0.130166
170 2 9.49077 8.8515 8.65 -0.00826353 6.49056e-14 -0.130166
171 2 10.9509 8.8515 8.65 0.00826353 8.06953e-14 -0.130166
172 2 11.681 7.587 8.65 -0.00826353 7.92977e-14 -0.130166
173 2 13.1411 7.587 8.65 0.00826353 -4.28358e-15 -0.130166
174 2 13.8711 8.8515 8.65 -0.00826353 6.83454e-14 -0.130166
175 2 15.3312 8.8515 8.65 0.00826353 1.46081e-14 -0.130166
176 2 16.0613 7.587 8.65 -0.00826353 -6.38648e-14 -0.130166
177 2 17.5214 7.587 8.65 0.00826353 -1.19935e-13 -0.130166
178 2 18.2515 8.8515 8.65 -0.00826353 -9.20968e-15 -0.130166
179 2 19.7116 8.8515 8.65 0.00826353 1.60824e-14 -0.130166
180 2 20.4417 7.587 8.65 -0.00826353 -2.3577e-14 -0.130166
181 2 0 10.116 8.65 0.00826353 -7.49597e-14 -0.130166
182 2 0.730059 11.3805 8.65 -0.00826353 5.20108e-15 -0.130166
183 2 2.19018 11.3805 8.65 0.00826353 3.03489e-15 -0.130166
184 2 2.92024 10.116 8.65 -0.00826353 -1.76057e-14 -0.130166
185 2 4.38036 10.116 8.65 0.00826353 1.69709e-14 -0.130166
186 2 5.11042 11.3805 8.65 -0.00826353 -1.15595e-14 -0.130166
187 2 6.57053 11.3805 8.65 0.00826353 -4.05412e-14 -0.130166
188 2 7.30059 10.116 8.65 -0.00826353 1.45278e-14 -0.130166
189 2 8.76071 10.116 8.65 0.00826353 2.98706e-14 -0.130166
190 2 9.49077 11.3805 8.65 -0.00826353 -5.61421e-14 -0.130166
191 2 10.9509 11.3805 8.65 0.00826353 -3.56767e-14 -0.130166
192 2 11.681 10.116 8.65 -0.00826353 -1.15185e-14 -0.130166
193 2 13.1411 10.116 8.65 0.00826353 8.5626e-14 -0.130166
194 2 13.8711 11.3805 8.65 -0.00826353 -3.76287e-14 -0.130166
195 2 15.3312 11.3805 8.65 0.00826353 4.786e-14 -0.130166
196 2 16.0613 10.116 8.65 -0.00826353 4.95365e-14 -0.130166
197 2 17.5214 10.116 8.65 0.00826353 -1.1449e-14 -0.130166
198 2 18.2515 11.3805 8.65 -0.00826353 2.69014e-14 -0.130166
199 2 19.7116 11.3805 8.65 0.00826353 -5.77247e-14 -0.130166
200 2 20.4417 10.116 8.65 -0.00826353 -6.93786e-14 -0.130166
ITEM: TIMESTEP
1
ITEM: NUMBER OF ATOMS
200
ITEM: BOX BOUNDS xy xz yz pp pp pp
0.0000000000000000e+00 2.1901782461708454e+01 0.0000000000000000e+00
0.0000000000000000e+00 1.2645000000000000e+01 0.0000000000000000e+00
0.0000000000000000e+00 1.3650000000000000e+01 0.0000000000000000e+00
ITEM: ATOMS id type x y z fx fy fz
1 1 2.0746e-07 1.10853e-18 5 0.00825394 2.4634e-13 0.130174
2 1 0.730059 1.2645 5 -0.00825394 1.82613e-15 0.130174
3 1 2.19018 1.2645 5 0.00825394 5.18339e-13 0.130174
4 1 2.92024 -1.1515e-18 5 -0.00825394 6.74487e-13 0.130174
5 1 4.38036 -8.14065e-19 5 0.00825394 8.38544e-13 0.130174
6 1 5.11042 1.2645 5 -0.00825394 7.73064e-13 0.130174
7 1 6.57053 1.2645 5 0.00825394 8.41251e-13 0.130174
8 1 7.30059 -9.85581e-19 5 -0.00825394 8.9846e-13 0.130174
9 1 8.76071 -1.18609e-18 5 0.00825394 8.65129e-13 0.130174
10 1 9.49077 1.2645 5 -0.00825394 7.76324e-13 0.130174
11 1 10.9509 1.2645 5 0.00825394 4.43395e-13 0.130174
12 1 11.681 -6.89726e-19 5 -0.00825394 5.11173e-13 0.130174
13 1 13.1411 1.97898e-19 5 0.00825394 1.74814e-13 0.130174
14 1 13.8711 1.2645 5 -0.00825394 -1.2336e-13 0.130174
15 1 15.3312 1.2645 5 0.00825394 -6.31751e-13 0.130174
16 1 16.0613 1.90231e-18 5 -0.00825394 -3.39047e-13 0.130174
17 1 17.5214 1.46068e-18 5 0.00825394 -4.8006e-13 0.130174
18 1 18.2515 1.2645 5 -0.00825394 -7.90451e-13 0.130174
19 1 19.7116 1.2645 5 0.00825394 -5.33458e-13 0.130174
20 1 20.4417 1.25455e-18 5 -0.00825394 -1.79444e-13 0.130174
21 1 2.0746e-07 2.529 5 0.00825394 -1.6488e-13 0.130174
22 1 0.730059 3.7935 5 -0.00825394 -4.43437e-13 0.130174
23 1 2.19018 3.7935 5 0.00825394 -3.24036e-13 0.130174
24 1 2.92024 2.529 5 -0.00825394 1.78535e-13 0.130174
25 1 4.38036 2.529 5 0.00825394 4.0568e-13 0.130174
26 1 5.11042 3.7935 5 -0.00825394 -9.59215e-14 0.130174
27 1 6.57053 3.7935 5 0.00825394 -1.07134e-13 0.130174
28 1 7.30059 2.529 5 -0.00825394 5.31432e-13 0.130174
29 1 8.76071 2.529 5 0.00825394 4.0653e-13 0.130174
30 1 9.49077 3.7935 5 -0.00825394 -1.17526e-13 0.130174
31 1 10.9509 3.7935 5 0.00825394 -1.00679e-13 0.130174
32 1 11.681 2.529 5 -0.00825394 1.99921e-13 0.130174
33 1 13.1411 2.529 5 0.00825394 -1.2532e-13 0.130174
34 1 13.8711 3.7935 5 -0.00825394 -1.60258e-13 0.130174
35 1 15.3312 3.7935 5 0.00825394 -1.93588e-13 0.130174
36 1 16.0613 2.529 5 -0.00825394 -4.82741e-13 0.130174
37 1 17.5214 2.529 5 0.00825394 -7.25122e-13 0.130174
38 1 18.2515 3.7935 5 -0.00825394 -3.90289e-13 0.130174
39 1 19.7116 3.7935 5 0.00825394 -4.6754e-13 0.130174
40 1 20.4417 2.529 5 -0.00825394 -5.81119e-13 0.130174
41 1 2.0746e-07 5.058 5 0.00825394 -4.6146e-13 0.130174
42 1 0.730059 6.3225 5 -0.00825394 -1.52155e-13 0.130174
43 1 2.19018 6.3225 5 0.00825394 -6.1833e-13 0.130174
44 1 2.92024 5.058 5 -0.00825394 -6.58577e-13 0.130174
45 1 4.38036 5.058 5 0.00825394 -7.30142e-13 0.130174
46 1 5.11042 6.3225 5 -0.00825394 -9.13797e-13 0.130174
47 1 6.57053 6.3225 5 0.00825394 -9.16249e-13 0.130174
48 1 7.30059 5.058 5 -0.00825394 -6.21065e-13 0.130174
49 1 8.76071 5.058 5 0.00825394 -6.09931e-13 0.130174
50 1 9.49077 6.3225 5 -0.00825394 -8.0595e-13 0.130174
51 1 10.9509 6.3225 5 0.00825394 -6.60079e-13 0.130174
52 1 11.681 5.058 5 -0.00825394 -4.68481e-13 0.130174
53 1 13.1411 5.058 5 0.00825394 -2.54611e-13 0.130174
54 1 13.8711 6.3225 5 -0.00825394 -4.44035e-14 0.130174
55 1 15.3312 6.3225 5 0.00825394 3.30219e-13 0.130174
56 1 16.0613 5.058 5 -0.00825394 4.29289e-15 0.130174
57 1 17.5214 5.058 5 0.00825394 1.16058e-13 0.130174
58 1 18.2515 6.3225 5 -0.00825394 5.13231e-13 0.130174
59 1 19.7116 6.3225 5 0.00825394 3.42888e-13 0.130174
60 1 20.4417 5.058 5 -0.00825394 -1.27028e-13 0.130174
61 1 2.0746e-07 7.587 5 0.00825394 5.42981e-14 0.130174
62 1 0.730059 8.8515 5 -0.00825394 2.68999e-13 0.130174
63 1 2.19018 8.8515 5 0.00825394 1.60239e-14 0.130174
64 1 2.92024 7.587 5 -0.00825394 -4.90139e-13 0.130174
65 1 4.38036 7.587 5 0.00825394 -7.82754e-13 0.130174
66 1 5.11042 8.8515 5 -0.00825394 -3.05664e-13 0.130174
67 1 6.57053 8.8515 5 0.00825394 -4.93578e-13 0.130174
68 1 7.30059 7.587 5 -0.00825394 -9.20853e-13 0.130174
69 1 8.76071 7.587 5 0.00825394 -8.23645e-13 0.130174
70 1 9.49077 8.8515 5 -0.00825394 -3.6132e-13 0.130174
71 1 10.9509 8.8515 5 0.00825394 -1.47096e-13 0.130174
72 1 11.681 7.587 5 -0.00825394 -5.25192e-13 0.130174
73 1 13.1411 7.587 5 0.00825394 -1.43324e-13 0.130174
74 1 13.8711 8.8515 5 -0.00825394 1.62258e-13 0.130174
75 1 15.3312 8.8515 5 0.00825394 5.50139e-13 0.130174
76 1 16.0613 7.587 5 -0.00825394 3.55492e-13 0.130174
77 1 17.5214 7.587 5 0.00825394 6.46126e-13 0.130174
78 1 18.2515 8.8515 5 -0.00825394 6.38468e-13 0.130174
79 1 19.7116 8.8515 5 0.00825394 5.839e-13 0.130174
80 1 20.4417 7.587 5 -0.00825394 4.34866e-13 0.130174
81 1 2.0746e-07 10.116 5 0.00825394 4.2137e-13 0.130174
82 1 0.730059 11.3805 5 -0.00825394 2.5187e-13 0.130174
83 1 2.19018 11.3805 5 0.00825394 4.30998e-13 0.130174
84 1 2.92024 10.116 5 -0.00825394 2.69997e-13 0.130174
85 1 4.38036 10.116 5 0.00825394 2.23429e-13 0.130174
86 1 5.11042 11.3805 5 -0.00825394 6.2714e-13 0.130174
87 1 6.57053 11.3805 5 0.00825394 6.24806e-13 0.130174
88 1 7.30059 10.116 5 -0.00825394 1.3742e-13 0.130174
89 1 8.76071 10.116 5 0.00825394 1.02303e-13 0.130174
90 1 9.49077 11.3805 5 -0.00825394 5.90124e-13 0.130174
91 1 10.9509 11.3805 5 0.00825394 4.9805e-13 0.130174
92 1 11.681 10.116 5 -0.00825394 1.88214e-13 0.130174
93 1 13.1411 10.116 5 0.00825394 3.50969e-13 0.130174
94 1 13.8711 11.3805 5 -0.00825394 2.30938e-13 0.130174
95 1 15.3312 11.3805 5 0.00825394 -1.57781e-14 0.130174
96 1 16.0613 10.116 5 -0.00825394 4.18801e-13 0.130174
97 1 17.5214 10.116 5 0.00825394 4.38956e-13 0.130174
98 1 18.2515 11.3805 5 -0.00825394 3.48004e-14 0.130174
99 1 19.7116 11.3805 5 0.00825394 1.07727e-13 0.130174
100 1 20.4417 10.116 5 -0.00825394 3.77089e-13 0.130174
101 2 2.0746e-07 -3.56369e-19 8.65 0.00825394 1.88523e-13 -0.130174
102 2 0.730059 1.2645 8.65 -0.00825394 -1.67229e-13 -0.130174
103 2 2.19018 1.2645 8.65 0.00825394 2.71529e-13 -0.130174
104 2 2.92024 -1.37093e-18 8.65 -0.00825394 4.6063e-13 -0.130174
105 2 4.38036 1.19539e-19 8.65 0.00825394 6.04201e-13 -0.130174
106 2 5.11042 1.2645 8.65 -0.00825394 7.41003e-13 -0.130174
107 2 6.57053 1.2645 8.65 0.00825394 1.05607e-12 -0.130174
108 2 7.30059 -1.15543e-18 8.65 -0.00825394 9.16765e-13 -0.130174
109 2 8.76071 -1.56846e-18 8.65 0.00825394 1.13617e-12 -0.130174
110 2 9.49077 1.2645 8.65 -0.00825394 1.28687e-12 -0.130174
111 2 10.9509 1.2645 8.65 0.00825394 1.12045e-12 -0.130174
112 2 11.681 5.43606e-19 8.65 -0.00825394 7.50861e-13 -0.130174
113 2 13.1411 4.42929e-19 8.65 0.00825394 2.25622e-13 -0.130174
114 2 13.8711 1.2645 8.65 -0.00825394 4.49639e-13 -0.130174
115 2 15.3312 1.2645 8.65 0.00825394 -1.83871e-13 -0.130174
116 2 16.0613 5.34716e-19 8.65 -0.00825394 -3.5756e-13 -0.130174
117 2 17.5214 1.78229e-18 8.65 0.00825394 -5.26932e-13 -0.130174
118 2 18.2515 1.2645 8.65 -0.00825394 -5.69621e-13 -0.130174
119 2 19.7116 1.2645 8.65 0.00825394 -5.29388e-13 -0.130174
120 2 20.4417 1.85478e-18 8.65 -0.00825394 -2.2193e-13 -0.130174
121 2 2.0746e-07 2.529 8.65 0.00825394 -4.21071e-13 -0.130174
122 2 0.730059 3.7935 8.65 -0.00825394 -5.27259e-13 -0.130174
123 2 2.19018 3.7935 8.65 0.00825394 -3.64544e-13 -0.130174
124 2 2.92024 2.529 8.65 -0.00825394 7.30552e-15 -0.130174
125 2 4.38036 2.529 8.65 0.00825394 4.59175e-13 -0.130174
126 2 5.11042 3.7935 8.65 -0.00825394 -2.88264e-14 -0.130174
127 2 6.57053 3.7935 8.65 0.00825394 1.57452e-13 -0.130174
128 2 7.30059 2.529 8.65 -0.00825394 8.57436e-13 -0.130174
129 2 8.76071 2.529 8.65 0.00825394 9.93714e-13 -0.130174
130 2 9.49077 3.7935 8.65 -0.00825394 3.70965e-13 -0.130174
131 2 10.9509 3.7935 8.65 0.00825394 4.2605e-13 -0.130174
132 2 11.681 2.529 8.65 -0.00825394 1.02009e-12 -0.130174
133 2 13.1411 2.529 8.65 0.00825394 7.08931e-13 -0.130174
134 2 13.8711 3.7935 8.65 -0.00825394 5.51514e-13 -0.130174
135 2 15.3312 3.7935 8.65 0.00825394 3.93456e-13 -0.130174
136 2 16.0613 2.529 8.65 -0.00825394 9.65493e-14 -0.130174
137 2 17.5214 2.529 8.65 0.00825394 -3.85165e-13 -0.130174
138 2 18.2515 3.7935 8.65 -0.00825394 -1.66257e-13 -0.130174
139 2 19.7116 3.7935 8.65 0.00825394 -4.93874e-13 -0.130174
140 2 20.4417 2.529 8.65 -0.00825394 -6.24214e-13 -0.130174
141 2 2.0746e-07 5.058 8.65 0.00825394 -4.03385e-13 -0.130174
142 2 0.730059 6.3225 8.65 -0.00825394 -4.84722e-15 -0.130174
143 2 2.19018 6.3225 8.65 0.00825394 -3.23162e-13 -0.130174
144 2 2.92024 5.058 8.65 -0.00825394 -4.09902e-13 -0.130174
145 2 4.38036 5.058 8.65 0.00825394 -4.66957e-13 -0.130174
146 2 5.11042 6.3225 8.65 -0.00825394 -5.77824e-13 -0.130174
147 2 6.57053 6.3225 8.65 0.00825394 -8.28387e-13 -0.130174
148 2 7.30059 5.058 8.65 -0.00825394 -4.19576e-13 -0.130174
149 2 8.76071 5.058 8.65 0.00825394 -5.08897e-13 -0.130174
150 2 9.49077 6.3225 8.65 -0.00825394 -1.04497e-12 -0.130174
151 2 10.9509 6.3225 8.65 0.00825394 -7.98161e-13 -0.130174
152 2 11.681 5.058 8.65 -0.00825394 -2.67083e-13 -0.130174
153 2 13.1411 5.058 8.65 0.00825394 2.00377e-13 -0.130174
154 2 13.8711 6.3225 8.65 -0.00825394 -1.33058e-14 -0.130174
155 2 15.3312 6.3225 8.65 0.00825394 4.55367e-13 -0.130174
156 2 16.0613 5.058 8.65 -0.00825394 4.20474e-13 -0.130174
157 2 17.5214 5.058 8.65 0.00825394 2.46645e-13 -0.130174
158 2 18.2515 6.3225 8.65 -0.00825394 6.05532e-13 -0.130174
159 2 19.7116 6.3225 8.65 0.00825394 3.66986e-13 -0.130174
160 2 20.4417 5.058 8.65 -0.00825394 -1.68521e-13 -0.130174
161 2 2.0746e-07 7.587 8.65 0.00825394 1.75936e-13 -0.130174
162 2 0.730059 8.8515 8.65 -0.00825394 4.6001e-13 -0.130174
163 2 2.19018 8.8515 8.65 0.00825394 -1.01247e-14 -0.130174
164 2 2.92024 7.587 8.65 -0.00825394 -2.06385e-13 -0.130174
165 2 4.38036 7.587 8.65 0.00825394 -5.5333e-13 -0.130174
166 2 5.11042 8.8515 8.65 -0.00825394 -4.06099e-13 -0.130174
167 2 6.57053 8.8515 8.65 0.00825394 -7.5873e-13 -0.130174
168 2 7.30059 7.587 8.65 -0.00825394 -1.07953e-12 -0.130174
169 2 8.76071 7.587 8.65 0.00825394 -1.29994e-12 -0.130174
170 2 9.49077 8.8515 8.65 -0.00825394 -9.63016e-13 -0.130174
171 2 10.9509 8.8515 8.65 0.00825394 -1.02876e-12 -0.130174
172 2 11.681 7.587 8.65 -0.00825394 -1.07249e-12 -0.130174
173 2 13.1411 7.587 8.65 0.00825394 -5.92591e-13 -0.130174
174 2 13.8711 8.8515 8.65 -0.00825394 -6.80434e-13 -0.130174
175 2 15.3312 8.8515 8.65 0.00825394 -9.99203e-14 -0.130174
176 2 16.0613 7.587 8.65 -0.00825394 1.23464e-13 -0.130174
177 2 17.5214 7.587 8.65 0.00825394 5.0346e-13 -0.130174
178 2 18.2515 8.8515 8.65 -0.00825394 4.42746e-13 -0.130174
179 2 19.7116 8.8515 8.65 0.00825394 5.55538e-13 -0.130174
180 2 20.4417 7.587 8.65 -0.00825394 5.52141e-13 -0.130174
181 2 2.0746e-07 10.116 8.65 0.00825394 4.54011e-13 -0.130174
182 2 0.730059 11.3805 8.65 -0.00825394 3.33546e-13 -0.130174
183 2 2.19018 11.3805 8.65 0.00825394 3.76124e-13 -0.130174
184 2 2.92024 10.116 8.65 -0.00825394 1.45117e-13 -0.130174
185 2 4.38036 10.116 8.65 0.00825394 -1.27309e-13 -0.130174
186 2 5.11042 11.3805 8.65 -0.00825394 3.56729e-13 -0.130174
187 2 6.57053 11.3805 8.65 0.00825394 3.45456e-13 -0.130174
188 2 7.30059 10.116 8.65 -0.00825394 -2.4921e-13 -0.130174
189 2 8.76071 10.116 8.65 0.00825394 -3.50456e-13 -0.130174
190 2 9.49077 11.3805 8.65 -0.00825394 4.14029e-13 -0.130174
191 2 10.9509 11.3805 8.65 0.00825394 1.91654e-13 -0.130174
192 2 11.681 10.116 8.65 -0.00825394 -4.0351e-13 -0.130174
193 2 13.1411 10.116 8.65 0.00825394 -5.25762e-13 -0.130174
194 2 13.8711 11.3805 8.65 -0.00825394 -2.71282e-13 -0.130174
195 2 15.3312 11.3805 8.65 0.00825394 -4.76429e-13 -0.130174
196 2 16.0613 10.116 8.65 -0.00825394 -3.69374e-13 -0.130174
197 2 17.5214 10.116 8.65 0.00825394 7.19288e-14 -0.130174
198 2 18.2515 11.3805 8.65 -0.00825394 -2.55374e-13 -0.130174
199 2 19.7116 11.3805 8.65 0.00825394 1.09405e-13 -0.130174
200 2 20.4417 10.116 8.65 -0.00825394 4.46335e-13 -0.130174
ITEM: TIMESTEP
2
ITEM: NUMBER OF ATOMS
200
ITEM: BOX BOUNDS xy xz yz pp pp pp
0.0000000000000000e+00 2.1901782461708454e+01 0.0000000000000000e+00
0.0000000000000000e+00 1.2645000000000000e+01 0.0000000000000000e+00
0.0000000000000000e+00 1.3650000000000000e+01 0.0000000000000000e+00
ITEM: ATOMS id type x y z fx fy fz
1 1 8.29357e-07 1.4586e-17 5.00001 0.00822519 -1.81996e-12 0.13018
2 1 0.730059 1.2645 5.00001 -0.00822519 -3.55695e-14 0.13018
3 1 2.19018 1.2645 5.00001 0.00822519 -3.50511e-12 0.13018
4 1 2.92024 3.15636e-17 5.00001 -0.00822519 -5.30677e-12 0.13018
5 1 4.38036 4.04759e-17 5.00001 0.00822519 -7.31148e-12 0.13018
6 1 5.11042 1.2645 5.00001 -0.00822519 -6.57335e-12 0.13018
7 1 6.57054 1.2645 5.00001 0.00822519 -7.92767e-12 0.13018
8 1 7.30059 4.31413e-17 5.00001 -0.00822519 -8.22224e-12 0.13018
9 1 8.76071 4.10668e-17 5.00001 0.00822519 -7.77563e-12 0.13018
10 1 9.49077 1.2645 5.00001 -0.00822519 -7.34523e-12 0.13018
11 1 10.9509 1.2645 5.00001 0.00822519 -5.09331e-12 0.13018
12 1 11.6809 2.4287e-17 5.00001 -0.00822519 -5.08373e-12 0.13018
13 1 13.1411 9.17336e-18 5.00001 0.00822519 -1.94054e-12 0.13018
14 1 13.8711 1.2645 5.00001 -0.00822519 -9.38769e-13 0.13018
15 1 15.3312 1.2645 5.00001 0.00822519 2.49054e-12 0.13018
16 1 16.0613 -1.32192e-17 5.00001 -0.00822519 1.4027e-12 0.13018
17 1 17.5214 -2.11829e-17 5.00001 0.00822519 2.40011e-12 0.13018
18 1 18.2515 1.2645 5.00001 -0.00822519 4.27921e-12 0.13018
19 1 19.7116 1.2645 5.00001 0.00822519 3.27528e-12 0.13018
20 1 20.4417 -6.50098e-18 5.00001 -0.00822519 8.87616e-13 0.13018
21 1 8.29357e-07 2.529 5.00001 0.00822519 2.24061e-12 0.13018
22 1 0.730059 3.7935 5.00001 -0.00822519 3.47192e-12 0.13018
23 1 2.19018 3.7935 5.00001 0.00822519 2.7081e-12 0.13018
24 1 2.92024 2.529 5.00001 -0.00822519 -8.02073e-13 0.13018
25 1 4.38036 2.529 5.00001 0.00822519 -3.01053e-12 0.13018
26 1 5.11042 3.7935 5.00001 -0.00822519 1.45555e-12 0.13018
27 1 6.57054 3.7935 5.00001 0.00822519 6.97485e-13 0.13018
28 1 7.30059 2.529 5.00001 -0.00822519 -4.50315e-12 0.13018
29 1 8.76071 2.529 5.00001 0.00822519 -4.42634e-12 0.13018
30 1 9.49077 3.7935 5.00001 -0.00822519 3.47844e-13 0.13018
31 1 10.9509 3.7935 5.00001 0.00822519 3.50309e-13 0.13018
32 1 11.6809 2.529 5.00001 -0.00822519 -2.76056e-12 0.13018
33 1 13.1411 2.529 5.00001 0.00822519 -3.11964e-13 0.13018
34 1 13.8711 3.7935 5.00001 -0.00822519 9.63182e-13 0.13018
35 1 15.3312 3.7935 5.00001 0.00822519 1.79072e-12 0.13018
36 1 16.0613 2.529 5.00001 -0.00822519 2.85144e-12 0.13018
37 1 17.5214 2.529 5.00001 0.00822519 4.35684e-12 0.13018
38 1 18.2515 3.7935 5.00001 -0.00822519 2.98806e-12 0.13018
39 1 19.7116 3.7935 5.00001 0.00822519 3.5659e-12 0.13018
40 1 20.4417 2.529 5.00001 -0.00822519 4.18252e-12 0.13018
41 1 8.29357e-07 5.058 5.00001 0.00822519 3.30612e-12 0.13018
42 1 0.730059 6.3225 5.00001 -0.00822519 2.23127e-12 0.13018
43 1 2.19018 6.3225 5.00001 0.00822519 5.10096e-12 0.13018
44 1 2.92024 5.058 5.00001 -0.00822519 4.92879e-12 0.13018
45 1 4.38036 5.058 5.00001 0.00822519 5.4955e-12 0.13018
46 1 5.11042 6.3225 5.00001 -0.00822519 7.6541e-12 0.13018
47 1 6.57054 6.3225 5.00001 0.00822519 8.35338e-12 0.13018
48 1 7.30059 5.058 5.00001 -0.00822519 5.54833e-12 0.13018
49 1 8.76071 5.058 5.00001 0.00822519 4.95388e-12 0.13018
50 1 9.49077 6.3225 5.00001 -0.00822519 7.64166e-12 0.13018
51 1 10.9509 6.3225 5.00001 0.00822519 5.56308e-12 0.13018
52 1 11.6809 5.058 5.00001 -0.00822519 3.40054e-12 0.13018
53 1 13.1411 5.058 5.00001 0.00822519 1.76595e-12 0.13018
54 1 13.8711 6.3225 5.00001 -0.00822519 1.71405e-12 0.13018
55 1 15.3312 6.3225 5.00001 0.00822519 -1.06753e-12 0.13018
56 1 16.0613 5.058 5.00001 -0.00822519 1.93516e-13 0.13018
57 1 17.5214 5.058 5.00001 0.00822519 2.29588e-13 0.13018
58 1 18.2515 6.3225 5.00001 -0.00822519 -2.31988e-12 0.13018
59 1 19.7116 6.3225 5.00001 0.00822519 -1.07344e-12 0.13018
60 1 20.4417 5.058 5.00001 -0.00822519 1.58115e-12 0.13018
61 1 8.29357e-07 7.587 5.00001 0.00822519 -3.67979e-13 0.13018
62 1 0.730059 8.8515 5.00001 -0.00822519 -2.13666e-12 0.13018
63 1 2.19018 8.8515 5.00001 0.00822519 3.37241e-13 0.13018
64 1 2.92024 7.587 5.00001 -0.00822519 3.68947e-12 0.13018
65 1 4.38036 7.587 5.00001 0.00822519 6.32016e-12 0.13018
66 1 5.11042 8.8515 5.00001 -0.00822519 3.07905e-12 0.13018
67 1 6.57054 8.8515 5.00001 0.00822519 4.45929e-12 0.13018
68 1 7.30059 7.587 5.00001 -0.00822519 7.87645e-12 0.13018
69 1 8.76071 7.587 5.00001 0.00822519 7.53427e-12 0.13018
70 1 9.49077 8.8515 5.00001 -0.00822519 4.37764e-12 0.13018
71 1 10.9509 8.8515 5.00001 0.00822519 2.93553e-12 0.13018
72 1 11.6809 7.587 5.00001 -0.00822519 4.93826e-12 0.13018
73 1 13.1411 7.587 5.00001 0.00822519 1.48098e-12 0.13018
74 1 13.8711 8.8515 5.00001 -0.00822519 3.54492e-15 0.13018
75 1 15.3312 8.8515 5.00001 0.00822519 -2.5453e-12 0.13018
76 1 16.0613 7.587 5.00001 -0.00822519 -2.50417e-12 0.13018
77 1 17.5214 7.587 5.00001 0.00822519 -4.13237e-12 0.13018
78 1 18.2515 8.8515 5.00001 -0.00822519 -4.38421e-12 0.13018
79 1 19.7116 8.8515 5.00001 0.00822519 -4.2207e-12 0.13018
80 1 20.4417 7.587 5.00001 -0.00822519 -3.12794e-12 0.13018
81 1 8.29357e-07 10.116 5.00001 0.00822519 -3.42692e-12 0.13018
82 1 0.730059 11.3805 5.00001 -0.00822519 -3.43669e-12 0.13018
83 1 2.19018 11.3805 5.00001 0.00822519 -4.62789e-12 0.13018
84 1 2.92024 10.116 5.00001 -0.00822519 -2.53948e-12 0.13018
85 1 4.38036 10.116 5.00001 0.00822519 -1.65413e-12 0.13018
86 1 5.11042 11.3805 5.00001 -0.00822519 -5.44736e-12 0.13018
87 1 6.57054 11.3805 5.00001 0.00822519 -5.61706e-12 0.13018
88 1 7.30059 10.116 5.00001 -0.00822519 -7.33045e-13 0.13018
89 1 8.76071 10.116 5.00001 0.00822519 -3.26813e-13 0.13018
90 1 9.49077 11.3805 5.00001 -0.00822519 -4.93246e-12 0.13018
91 1 10.9509 11.3805 5.00001 0.00822519 -3.68783e-12 0.13018
92 1 11.6809 10.116 5.00001 -0.00822519 -5.72083e-13 0.13018
93 1 13.1411 10.116 5.00001 0.00822519 -1.06945e-12 0.13018
94 1 13.8711 11.3805 5.00001 -0.00822519 -1.73136e-12 0.13018