         200
 Lattice="   21.901782461708454        0.0000000000000000        0.0000000000000000        0.0000000000000000        12.645000000000000        0.0000000000000000        0.0000000000000000        0.0000000000000000        13.650000000000000      "Properties=species:S:1:pos:R:3:vel:R:3:for:R:3:cha:R:1  Time=   0.0000000000000000     
 T    0.0000000000000000        0.0000000000000000        5.0000000000000009       -0.0000000000000000        0.0000000000000000        0.0000000000000000        8.2635277629973022E-003   4.4154626073788004E-014   2.0318252657981119E-003  -4.4408920985006262E-016
 T   0.73005941539028163        1.2645000000000000        5.0000000000000009        0.0000000000000000       -0.0000000000000000       -0.0000000000000000       -8.2635277630569073E-003  -4.9914980114242746E-014   2.0318252657686459E-003   1.6209256159527285E-014
 T    2.1901782461708450        1.2645000000000000        5.0000000000000009       -0.0000000000000000        0.0000000000000000        0.0000000000000000        8.2635277630037016E-003  -5.6437123907436201E-014   2.0318252657860096E-003   3.1530333899354446E-014
 T    2.9202376615611265        0.0000000000000000        5.0000000000000009       -0.0000000000000000       -0.0000000000000000       -0.0000000000000000       -8.2635277630261732E-003  -4.5866556170226584E-014   2.0318252657849068E-003   1.7319479184152442E-014
 T    4.3803564923416900        0.0000000000000000        5.0000000000000009        0.0000000000000000       -0.0000000000000000        0.0000000000000000        8.2635277631093497E-003  -3.2425786201066289E-014   2.0318252657740921E-003   2.7533531010703882E-014
 T    5.1104159077319729        1.2645000000000000        5.0000000000000009        0.0000000000000000        0.0000000000000000        0.0000000000000000       -8.2635277632284558E-003  -6.0497715373372381E-014   2.0318252657871030E-003   5.9063864910058328E-014
 T    6.5705347385125359        1.2645000000000000        5.0000000000000009       -0.0000000000000000        0.0000000000000000        0.0000000000000000        8.2635277630706966E-003  -4.9189468086323166E-014   2.0318252657771521E-003   8.1268325402561459E-014
 T    7.3005941539028179        0.0000000000000000        5.0000000000000009       -0.0000000000000000       -0.0000000000000000       -0.0000000000000000       -8.2635277629648785E-003  -3.9257633267692127E-014   2.0318252657649206E-003   6.6169292267659330E-014
 T    8.7607129846833800        0.0000000000000000        5.0000000000000009       -0.0000000000000000       -0.0000000000000000        0.0000000000000000        8.2635277628982373E-003  -4.7244239015844684E-014   2.0318252657768685E-003   6.5281113847959205E-014
 T    9.4907724000736629        1.2645000000000000        5.0000000000000009        0.0000000000000000       -0.0000000000000000       -0.0000000000000000       -8.2635277629530372E-003   7.0270004891989337E-015   2.0318252657941316E-003   8.5931262105987116E-014
 T    10.950891230854225        1.2645000000000000        5.0000000000000009       -0.0000000000000000       -0.0000000000000000        0.0000000000000000        8.2635277630197582E-003  -3.7447228219036079E-014   2.0318252657655668E-003   6.3060667798708891E-014
 T    11.680950646244506        0.0000000000000000        5.0000000000000009       -0.0000000000000000        0.0000000000000000       -0.0000000000000000       -8.2635277630936539E-003  -2.7473148591975413E-014   2.0318252657924099E-003   5.8175686490358203E-014
 T    13.141069477025072        0.0000000000000000        5.0000000000000009        0.0000000000000000        0.0000000000000000       -0.0000000000000000        8.2635277631078752E-003   7.8826529798507198E-015   2.0318252657852550E-003   7.0610184366159956E-014
 T    13.871128892415351        1.2645000000000000        5.0000000000000009       -0.0000000000000000       -0.0000000000000000        0.0000000000000000       -8.2635277631131106E-003   5.4195648672832308E-014   2.0318252657801649E-003   4.2854608750531042E-014
 T    15.331247723195917        1.2645000000000000        5.0000000000000009        0.0000000000000000       -0.0000000000000000        0.0000000000000000        8.2635277632164324E-003   6.0271630119712585E-014   2.0318252657783057E-003   3.2418512319054571E-014
 T    16.061307138586201        0.0000000000000000        5.0000000000000009        0.0000000000000000       -0.0000000000000000        0.0000000000000000       -8.2635277628227612E-003   7.5772787563184422E-014   2.0318252657773855E-003   5.5289106626332796E-014
 T    17.521425969366760        0.0000000000000000        5.0000000000000009       -0.0000000000000000       -0.0000000000000000        0.0000000000000000        8.2635277627873711E-003   5.8181828863041153E-014   2.0318252657858934E-003   5.4845017416482733E-014
 T    18.251485384757046        1.2645000000000000        5.0000000000000009        0.0000000000000000       -0.0000000000000000        0.0000000000000000       -8.2635277627797887E-003   7.0116780659804922E-014   2.0318252657789224E-003   1.0658141036401503E-014
 T    19.711604215537605        1.2645000000000000        5.0000000000000009       -0.0000000000000000        0.0000000000000000        0.0000000000000000        8.2635277628906843E-003   1.5813663644621606E-014   2.0318252657708724E-003  -8.8817841970012523E-015
 T    20.441663630927891        0.0000000000000000        5.0000000000000009        0.0000000000000000       -0.0000000000000000       -0.0000000000000000       -8.2635277630160667E-003   4.9971266741027106E-014   2.0318252657667958E-003   6.2172489379008766E-015
 T    0.0000000000000000        2.5289999999999999        5.0000000000000009       -0.0000000000000000        0.0000000000000000       -0.0000000000000000        8.2635277629392011E-003   4.0344044518346061E-014   2.0318252657852481E-003   7.5495165674510645E-015
 T   0.73005941539028163        3.7934999999999999        5.0000000000000009       -0.0000000000000000       -0.0000000000000000       -0.0000000000000000       -8.2635277631366577E-003   4.1466894934300726E-014   2.0318252657831790E-003   2.0428103653102880E-014
 T    2.1901782461708450        3.7934999999999999        5.0000000000000009        0.0000000000000000       -0.0000000000000000       -0.0000000000000000        8.2635277630110221E-003   6.3021583970989077E-014   2.0318252657673254E-003   6.2172489379008766E-014
 T    2.9202376615611265        2.5289999999999999        5.0000000000000009       -0.0000000000000000        0.0000000000000000        0.0000000000000000       -8.2635277630651247E-003  -3.5210037923713239E-014   2.0318252657806181E-003   7.0610184366159956E-014
 T    4.3803564923416900        2.5289999999999999        5.0000000000000009        0.0000000000000000        0.0000000000000000       -0.0000000000000000        8.2635277630708926E-003  -6.7796597238902839E-014   2.0318252657655651E-003   8.2378548427186615E-014
 T    5.1104159077319729        3.7934999999999999        5.0000000000000009       -0.0000000000000000        0.0000000000000000       -0.0000000000000000       -8.2635277630372875E-003   3.0624280375016421E-014   2.0318252657885350E-003   1.0658141036401503E-013
 T    6.5705347385125359        3.7934999999999999        5.0000000000000009        0.0000000000000000        0.0000000000000000       -0.0000000000000000        8.2635277630990177E-003  -3.7026172824959347E-014   2.0318252657733011E-003   1.0191847366058937E-013
 T    7.3005941539028179        2.5289999999999999        5.0000000000000009        0.0000000000000000        0.0000000000000000        0.0000000000000000       -8.2635277631054587E-003   1.8057105307643342E-015   2.0318252657802803E-003   1.0391687510491465E-013
 T    8.7607129846833800        2.5289999999999999        5.0000000000000009        0.0000000000000000       -0.0000000000000000        0.0000000000000000        8.2635277631095301E-003   7.4016915070335756E-015   2.0318252657807742E-003   9.7477581562088744E-014
 T    9.4907724000736629        3.7934999999999999        5.0000000000000009        0.0000000000000000        0.0000000000000000        0.0000000000000000       -8.2635277629432048E-003   1.2019247673626047E-014   2.0318252657750765E-003   8.5709217501062085E-014
 T    10.950891230854225        3.7934999999999999        5.0000000000000009        0.0000000000000000       -0.0000000000000000       -0.0000000000000000        8.2635277629427434E-003  -3.9676171755433867E-014   2.0318252657814183E-003   7.1276318180935050E-014
 T    11.680950646244506        2.5289999999999999        5.0000000000000009       -0.0000000000000000        0.0000000000000000        0.0000000000000000       -8.2635277631067025E-003   4.5674706185132087E-014   2.0318252657761508E-003   6.3060667798708891E-014
 T    13.141069477025072        2.5289999999999999        5.0000000000000009        0.0000000000000000        0.0000000000000000       -0.0000000000000000        8.2635277631647637E-003   3.7837933293871588E-014   2.0318252657799485E-003   3.8635761256955448E-014
 T    13.871128892415351        3.7934999999999999        5.0000000000000009       -0.0000000000000000        0.0000000000000000        0.0000000000000000       -8.2635277631079584E-003   1.6977455095632006E-014   2.0318252657757106E-003   1.8207657603852567E-014
 T    15.331247723195917        3.7934999999999999        5.0000000000000009        0.0000000000000000       -0.0000000000000000        0.0000000000000000        8.2635277631449601E-003  -1.6681111245683978E-015   2.0318252657771296E-003  -7.9936057773011271E-015
 T    16.061307138586201        2.5289999999999999        5.0000000000000009        0.0000000000000000       -0.0000000000000000        0.0000000000000000       -8.2635277629168231E-003   9.4365694384774270E-015   2.0318252657997361E-003  -1.6875389974302379E-014
 T    17.521425969366760        2.5289999999999999        5.0000000000000009        0.0000000000000000       -0.0000000000000000        0.0000000000000000        8.2635277629306003E-003   1.1955601598683282E-013   2.0318252657539082E-003  -2.2204460492503131E-014
 T    18.251485384757046        3.7934999999999999        5.0000000000000009        0.0000000000000000       -0.0000000000000000        0.0000000000000000       -8.2635277628601601E-003  -3.1205187434248133E-014   2.0318252657964323E-003  -5.8175686490358203E-014
 T    19.711604215537605        3.7934999999999999        5.0000000000000009        0.0000000000000000       -0.0000000000000000        0.0000000000000000        8.2635277628587672E-003   1.5776376300148785E-014   2.0318252657807205E-003  -6.0396132539608516E-014
 T    20.441663630927891        2.5289999999999999        5.0000000000000009        0.0000000000000000       -0.0000000000000000        0.0000000000000000       -8.2635277629935881E-003   2.9135602505400721E-014   2.0318252657826417E-003  -2.0428103653102880E-014
 T    0.0000000000000000        5.0579999999999998        5.0000000000000009       -0.0000000000000000       -0.0000000000000000       -0.0000000000000000        8.2635277628505012E-003   3.7476449150534992E-014   2.0318252657628290E-003  -2.4424906541753444E-014
 T   0.73005941539028163        6.3224999999999980        5.0000000000000009        0.0000000000000000        0.0000000000000000       -0.0000000000000000       -8.2635277630360923E-003  -8.7400042380614722E-015   2.0318252657792919E-003  -1.2434497875801753E-014
 T    2.1901782461708450        6.3224999999999980        5.0000000000000009        0.0000000000000000        0.0000000000000000       -0.0000000000000000        8.2635277629929914E-003  -1.0545691966563036E-014   2.0318252657708590E-003   2.2204460492503131E-015
 T    2.9202376615611265        5.0579999999999998        5.0000000000000009        0.0000000000000000        0.0000000000000000       -0.0000000000000000       -8.2635277632020412E-003   5.9176373121497021E-014   2.0318252657917152E-003   4.9293902293356950E-014
 T    4.3803564923416900        5.0579999999999998        5.0000000000000009       -0.0000000000000000        0.0000000000000000       -0.0000000000000000        8.2635277630823539E-003   1.4868364928628065E-013   2.0318252657695007E-003   7.7715611723760958E-014
 T    5.1104159077319729        6.3224999999999980        5.0000000000000009       -0.0000000000000000        0.0000000000000000       -0.0000000000000000       -8.2635277630128089E-003  -5.8866195610649947E-014   2.0318252657993839E-003   5.3290705182007514E-014
 T    6.5705347385125359        6.3224999999999980        5.0000000000000009       -0.0000000000000000       -0.0000000000000000        0.0000000000000000        8.2635277629731808E-003   1.2587305185372432E-014   2.0318252657572844E-003   6.9277916736609768E-014
 T    7.3005941539028179        5.0579999999999998        5.0000000000000009       -0.0000000000000000        0.0000000000000000        0.0000000000000000       -8.2635277630396693E-003   4.4697762178513695E-014   2.0318252657868128E-003   9.4146912488213275E-014
 T    8.7607129846833800        5.0579999999999998        5.0000000000000009        0.0000000000000000       -0.0000000000000000       -0.0000000000000000        8.2635277630236318E-003   2.6951742011221417E-014   2.0318252657669372E-003   8.6153306710912148E-014
 T    9.4907724000736629        6.3224999999999980        5.0000000000000009        0.0000000000000000        0.0000000000000000        0.0000000000000000       -8.2635277630031950E-003   4.7091255448654176E-014   2.0318252658096717E-003   6.7057470687359455E-014
 T    10.950891230854225        6.3224999999999980        5.0000000000000009       -0.0000000000000000        0.0000000000000000        0.0000000000000000        8.2635277629926167E-003   1.1172664782504816E-014   2.0318252657707809E-003   4.0856207306205761E-014
 T    11.680950646244506        5.0579999999999998        5.0000000000000009       -0.0000000000000000        0.0000000000000000        0.0000000000000000       -8.2635277630408212E-003   5.8267609208930273E-014   2.0318252657705034E-003   5.6399329650957952E-014
 T    13.141069477025072        5.0579999999999998        5.0000000000000009        0.0000000000000000        0.0000000000000000       -0.0000000000000000        8.2635277631982057E-003   5.9367292643735110E-014   2.0318252657707645E-003   2.5313084961453569E-014
 T    13.871128892415351        6.3224999999999980        5.0000000000000009        0.0000000000000000       -0.0000000000000000       -0.0000000000000000       -8.2635277630747610E-003  -9.9296147119576984E-014   2.0318252657759027E-003   1.3322676295501878E-014
 T    15.331247723195917        6.3224999999999980        5.0000000000000009        0.0000000000000000       -0.0000000000000000       -0.0000000000000000        8.2635277631329315E-003  -1.0406656637399857E-013   2.0318252657937847E-003  -8.8817841970012523E-016
 T    16.061307138586201        5.0579999999999998        5.0000000000000009        0.0000000000000000       -0.0000000000000000       -0.0000000000000000       -8.2635277629334071E-003   2.7246207065721203E-014   2.0318252657532264E-003  -2.7089441800853820E-014
 T    17.521425969366760        5.0579999999999998        5.0000000000000009       -0.0000000000000000        0.0000000000000000       -0.0000000000000000        8.2635277629617698E-003   7.3338987747718810E-014   2.0318252657912025E-003  -4.0856207306205761E-014
 T    18.251485384757046        6.3224999999999980        5.0000000000000009        0.0000000000000000        0.0000000000000000       -0.0000000000000000       -8.2635277628518092E-003  -9.1323152247999210E-014   2.0318252657621234E-003  -3.7303493627405260E-014
 T    19.711604215537605        6.3224999999999980        5.0000000000000009       -0.0000000000000000        0.0000000000000000        0.0000000000000000        8.2635277628491620E-003  -7.6684173350625594E-014   2.0318252657813406E-003  -4.3520742565306136E-014
 T    20.441663630927891        5.0579999999999998        5.0000000000000009        0.0000000000000000        0.0000000000000000        0.0000000000000000       -8.2635277629335337E-003   3.4249113579245386E-014   2.0318252657843218E-003  -5.0182080713057076E-014
 T    0.0000000000000000        7.5869999999999997        5.0000000000000009       -0.0000000000000000        0.0000000000000000       -0.0000000000000000        8.2635277628793410E-003   2.5306847829451492E-014   2.0318252657859416E-003  -2.4424906541753444E-014
 T   0.73005941539028163        8.8514999999999997        5.0000000000000009       -0.0000000000000000       -0.0000000000000000       -0.0000000000000000       -8.2635277630756267E-003   5.4289594176871682E-014   2.0318252657700051E-003  -1.6431300764452317E-014
 T    2.1901782461708450        8.8514999999999997        5.0000000000000009       -0.0000000000000000       -0.0000000000000000        0.0000000000000000        8.2635277629790338E-003  -3.8756041151475736E-014   2.0318252657645810E-003  -1.1990408665951691E-014
 T    2.9202376615611265        7.5869999999999997        5.0000000000000009        0.0000000000000000       -0.0000000000000000       -0.0000000000000000       -8.2635277629549524E-003   3.1765826975081771E-014   2.0318252657953342E-003  -1.0658141036401503E-014
 T    4.3803564923416900        7.5869999999999997        5.0000000000000009        0.0000000000000000       -0.0000000000000000        0.0000000000000000        8.2635277630218155E-003   1.6001827538643519E-013   2.0318252657627210E-003   7.1054273576010019E-015
 T    5.1104159077319729        8.8514999999999997        5.0000000000000009       -0.0000000000000000        0.0000000000000000       -0.0000000000000000       -8.2635277631160405E-003  -1.0249132633417701E-014   2.0318252657897562E-003  -7.1054273576010019E-015
 T    6.5705347385125359        8.8514999999999997        5.0000000000000009        0.0000000000000000       -0.0000000000000000        0.0000000000000000        8.2635277630213767E-003   1.2810924254125404E-014   2.0318252657640524E-003   2.0650148258027912E-014
 T    7.3005941539028179        7.5869999999999997        5.0000000000000009        0.0000000000000000        0.0000000000000000        0.0000000000000000       -8.2635277630002963E-003   7.6373602043598161E-014   2.0318252657753051E-003   4.6185277824406512E-014
 T    8.7607129846833800        7.5869999999999997        5.0000000000000009        0.0000000000000000       -0.0000000000000000       -0.0000000000000000        8.2635277629781612E-003   5.3470914208941433E-014   2.0318252657700740E-003   4.9293902293356950E-014
 T    9.4907724000736629        8.8514999999999997        5.0000000000000009       -0.0000000000000000       -0.0000000000000000       -0.0000000000000000       -8.2635277629618600E-003  -3.2280374293212578E-016   2.0318252657870609E-003   2.4868995751603507E-014
 T    10.950891230854225        8.8514999999999997        5.0000000000000009        0.0000000000000000       -0.0000000000000000       -0.0000000000000000        8.2635277629565899E-003  -1.9222946079560215E-014   2.0318252657669754E-003   4.8849813083506888E-015
 T    11.680950646244506        7.5869999999999997        5.0000000000000009       -0.0000000000000000        0.0000000000000000       -0.0000000000000000       -8.2635277629564165E-003   7.2470084867293246E-014   2.0318252657884135E-003   9.3258734068513149E-015
 T    13.141069477025072        7.5869999999999997        5.0000000000000009        0.0000000000000000       -0.0000000000000000       -0.0000000000000000        8.2635277630649789E-003   1.1718938819522128E-013   2.0318252657917481E-003   1.7763568394002505E-015
 T    13.871128892415351        8.8514999999999997        5.0000000000000009       -0.0000000000000000        0.0000000000000000       -0.0000000000000000       -8.2635277631888937E-003  -2.5823404769128616E-014   2.0318252657783083E-003   1.4654943925052066E-014
 T    15.331247723195917        8.8514999999999997        5.0000000000000009       -0.0000000000000000       -0.0000000000000000        0.0000000000000000        8.2635277631397178E-003  -8.0532199551936087E-014   2.0318252657573837E-003   1.7763568394002505E-014
 T    16.061307138586201        7.5869999999999997        5.0000000000000009        0.0000000000000000        0.0000000000000000        0.0000000000000000       -8.2635277628578738E-003   8.3107353911244207E-014   2.0318252657815501E-003   2.2204460492503131E-015
 T    17.521425969366760        7.5869999999999997        5.0000000000000009        0.0000000000000000        0.0000000000000000       -0.0000000000000000        8.2635277628177531E-003  -3.9479393270506130E-014   2.0318252657824721E-003  -5.7731597280508140E-015
 T    18.251485384757046        8.8514999999999997        5.0000000000000009       -0.0000000000000000        0.0000000000000000       -0.0000000000000000       -8.2635277628625610E-003   5.0779388447016284E-015   2.0318252657836626E-003   3.7747582837255322E-015
 T    19.711604215537605        8.8514999999999997        5.0000000000000009       -0.0000000000000000        0.0000000000000000        0.0000000000000000        8.2635277629238453E-003   4.2964750691953501E-015   2.0318252657814473E-003  -1.2878587085651816E-014
 T    20.441663630927891        7.5869999999999997        5.0000000000000009        0.0000000000000000        0.0000000000000000        0.0000000000000000       -8.2635277629016894E-003  -4.5076748768696824E-015   2.0318252657820354E-003  -2.8421709430404007E-014
 T    0.0000000000000000        10.116000000000000        5.0000000000000009       -0.0000000000000000       -0.0000000000000000       -0.0000000000000000        8.2635277629933383E-003  -8.8019408967182111E-014   2.0318252657913725E-003  -2.6645352591003757E-015
 T   0.73005941539028163        11.380500000000000        5.0000000000000009        0.0000000000000000       -0.0000000000000000        0.0000000000000000       -8.2635277629748410E-003  -3.5696246384476880E-014   2.0318252657554386E-003  -1.7763568394002505E-015
 T    2.1901782461708450        11.380500000000000        5.0000000000000009        0.0000000000000000        0.0000000000000000       -0.0000000000000000        8.2635277629909340E-003  -6.3015964252771267E-014   2.0318252657782593E-003  -4.4408920985006262E-016
 T    2.9202376615611265        10.116000000000000        5.0000000000000009        0.0000000000000000        0.0000000000000000       -0.0000000000000000       -8.2635277630474634E-003   9.9838350522750033E-015   2.0318252657834167E-003  -4.4408920985006262E-015
 T    4.3803564923416900        10.116000000000000        5.0000000000000009       -0.0000000000000000        0.0000000000000000       -0.0000000000000000        8.2635277630584703E-003   3.8788709851625623E-014   2.0318252657674368E-003  -0.0000000000000000     
 T    5.1104159077319729        11.380500000000000        5.0000000000000009        0.0000000000000000       -0.0000000000000000       -0.0000000000000000       -8.2635277630817086E-003  -6.6468472795355089E-014   2.0318252657848231E-003   1.7319479184152442E-014
 T    6.5705347385125359        11.380500000000000        5.0000000000000009        0.0000000000000000        0.0000000000000000       -0.0000000000000000        8.2635277629880648E-003  -9.6126297130617664E-014   2.0318252657878354E-003   3.8857805861880479E-014
 T    7.3005941539028179        10.116000000000000        5.0000000000000009        0.0000000000000000       -0.0000000000000000        0.0000000000000000       -8.2635277630031968E-003   4.7830707157826911E-014   2.0318252657737404E-003   1.6875389974302379E-014
 T    8.7607129846833800        10.116000000000000        5.0000000000000009       -0.0000000000000000       -0.0000000000000000       -0.0000000000000000        8.2635277630424449E-003   4.1475669414686778E-015   2.0318252657865409E-003   1.9984014443252818E-014
 T    9.4907724000736629        11.380500000000000        5.0000000000000009       -0.0000000000000000        0.0000000000000000        0.0000000000000000       -8.2635277629414805E-003  -5.2897885624072333E-014   2.0318252657921996E-003   3.7525538232330291E-014
 T    10.950891230854225        11.380500000000000        5.0000000000000009       -0.0000000000000000        0.0000000000000000       -0.0000000000000000        8.2635277629182942E-003  -5.6861926879175978E-014   2.0318252657528925E-003   3.3084646133829665E-014
 T    11.680950646244506        10.116000000000000        5.0000000000000009       -0.0000000000000000        0.0000000000000000        0.0000000000000000       -8.2635277630882589E-003  -5.9138023841078054E-014   2.0318252657899436E-003   2.2426505097428162E-014
 T    13.141069477025072        10.116000000000000        5.0000000000000009       -0.0000000000000000       -0.0000000000000000        0.0000000000000000        8.2635277631135616E-003  -3.7433055827917122E-014   2.0318252657646960E-003   2.7311486405778851E-014
 T    13.871128892415351        11.380500000000000        5.0000000000000009       -0.0000000000000000       -0.0000000000000000       -0.0000000000000000       -8.2635277630996821E-003  -6.8292504481016806E-014   2.0318252658079530E-003   5.7731597280508140E-014
 T    15.331247723195917        11.380500000000000        5.0000000000000009       -0.0000000000000000       -0.0000000000000000       -0.0000000000000000        8.2635277630556600E-003  -3.5986482105160443E-014   2.0318252657608353E-003   7.1054273576010019E-014
 T    16.061307138586201        10.116000000000000        5.0000000000000009       -0.0000000000000000        0.0000000000000000        0.0000000000000000       -8.2635277628630467E-003  -6.7028808874084394E-014   2.0318252657707007E-003   4.3298697960381105E-014
 T    17.521425969366760        10.116000000000000        5.0000000000000009       -0.0000000000000000        0.0000000000000000        0.0000000000000000        8.2635277628971913E-003  -9.9039039707766524E-014   2.0318252657816863E-003   3.3306690738754696E-014
 T    18.251485384757046        11.380500000000000        5.0000000000000009        0.0000000000000000       -0.0000000000000000       -0.0000000000000000       -8.2635277627716996E-003  -2.2846730738326536E-014   2.0318252657855118E-003   4.3076653355456074E-014
 T    19.711604215537605        11.380500000000000        5.0000000000000009        0.0000000000000000        0.0000000000000000       -0.0000000000000000        8.2635277628706691E-003  -9.8984950906289102E-015   2.0318252657883927E-003   7.9936057773011271E-015
 T    20.441663630927891        10.116000000000000        5.0000000000000009       -0.0000000000000000        0.0000000000000000       -0.0000000000000000       -8.2635277629453767E-003  -3.7284311027996787E-014   2.0318252657794780E-003   6.4392935428259079E-015
 T    0.0000000000000000        0.0000000000000000        8.6500000000000021       -0.0000000000000000        0.0000000000000000        0.0000000000000000        8.2635277629768116E-003  -1.4195292969758114E-014  -2.0318252657719805E-003  -9.3258734068513149E-015
 T   0.73005941539028163        1.2645000000000000        8.6500000000000021       -0.0000000000000000        0.0000000000000000       -0.0000000000000000       -8.2635277630880646E-003  -7.8879662097242775E-015  -2.0318252657789454E-003   6.2172489379008766E-015
 T    2.1901782461708450        1.2645000000000000        8.6500000000000021        0.0000000000000000       -0.0000000000000000        0.0000000000000000        8.2635277630452239E-003  -2.5977350604967407E-014  -2.0318252657768507E-003   8.8817841970012523E-015
 T    2.9202376615611265        0.0000000000000000        8.6500000000000021       -0.0000000000000000       -0.0000000000000000       -0.0000000000000000       -8.2635277630368313E-003  -5.4606649390789744E-014  -2.0318252657869260E-003   6.2172489379008766E-015
 T    4.3803564923416900        0.0000000000000000        8.6500000000000021        0.0000000000000000        0.0000000000000000        0.0000000000000000        8.2635277630192724E-003   4.7614509539871222E-015  -2.0318252657822986E-003   3.1086244689504383E-015
 T    5.1104159077319729        1.2645000000000000        8.6500000000000021        0.0000000000000000        0.0000000000000000        0.0000000000000000       -8.2635277630195778E-003  -4.2523312791108637E-014  -2.0318252657635198E-003   2.6201263381153694E-014
 T    6.5705347385125359        1.2645000000000000        8.6500000000000021       -0.0000000000000000        0.0000000000000000        0.0000000000000000        8.2635277630384793E-003  -3.0104442484277142E-014  -2.0318252657992573E-003   2.1760371282653068E-014
 T    7.3005941539028179        0.0000000000000000        8.6500000000000021       -0.0000000000000000       -0.0000000000000000       -0.0000000000000000       -8.2635277629306506E-003  -4.6023086015052440E-014  -2.0318252657652702E-003  -1.3766765505351941E-014
 T    8.7607129846833800        0.0000000000000000        8.6500000000000021        0.0000000000000000        0.0000000000000000        0.0000000000000000        8.2635277629244629E-003  -6.2474757046447909E-014  -2.0318252657855781E-003  -2.8865798640254070E-014
 T    9.4907724000736629        1.2645000000000000        8.6500000000000021       -0.0000000000000000       -0.0000000000000000        0.0000000000000000       -8.2635277629300279E-003  -1.6128087075468564E-013  -2.0318252657818333E-003   1.2878587085651816E-014
 T    10.950891230854225        1.2645000000000000        8.6500000000000021        0.0000000000000000        0.0000000000000000       -0.0000000000000000        8.2635277630526693E-003  -1.1343379021343668E-013  -2.0318252657686173E-003  -3.5527136788005009E-015