configurations/AA_hex_4.lmp (written by ASE) 

4 	 atoms 
2  atom types
0.0      2.4768326548234945  xlo xhi
0.0                   2.145  ylo yhi
0.0                     9.5  zlo zhi
     -1.238416327411747                       0                       0  xy xz yz


Atoms 

     1   1   1   0.0                       0                       0                       3
     2   1   1   0.0      1.2384163274117472     0.71499999999999997                       3
     3   2   2   0.0                       0                       0      6.4999999999999991
     4   2   2   0.0      1.2384163274117472     0.71499999999999997      6.4999999999999991
