configurations/AA_hex_36.lmp (written by ASE) 

36 	 atoms 
2  atom types
0.0      7.4304979644704829  xlo xhi
0.0      6.4350000000000005  ylo yhi
0.0                     9.5  zlo zhi
    -3.7152489822352406                       0                       0  xy xz yz


Atoms 

     1   1   1   0.0                       0                       0                       3
     2   1   1   0.0      1.2384163274117472     0.71499999999999997                       3
     3   1   1   0.0      2.4768326548234945                       0                       3
     4   1   1   0.0      3.7152489822352415     0.71499999999999997                       3
     5   1   1   0.0      4.9536653096469889                       0                       3
     6   1   1   0.0      6.1920816370587364     0.71499999999999997                       3
     7   1   1   0.0      1.2384163274117475                   2.145                       3
     8   1   1   0.0      2.4768326548234949      2.8599999999999999                       3
     9   1   1   0.0      3.7152489822352419                   2.145                       3
    10   1   1   0.0      4.9536653096469889      2.8599999999999999                       3
    11   1   1   0.0      6.1920816370587364                   2.145                       3
    12   1   1   0.0      7.4304979644704838      2.8599999999999999                       3
    13   1   1   0.0      2.4768326548234949                    4.29                       3
    14   1   1   0.0      3.7152489822352424      5.0049999999999999                       3
    15   1   1   0.0      4.9536653096469898                    4.29                       3
    16   1   1   0.0      6.1920816370587364      5.0049999999999999                       3
    17   1   1   0.0      7.4304979644704838                    4.29                       3
    18   1   1   0.0      8.6689142918822313      5.0049999999999999                       3
    19   2   2   0.0                       0                       0      6.4999999999999991
    20   2   2   0.0      1.2384163274117472     0.71499999999999997      6.4999999999999991
    21   2   2   0.0      2.4768326548234945                       0      6.4999999999999991
    22   2   2   0.0      3.7152489822352415     0.71499999999999997      6.4999999999999991
    23   2   2   0.0      4.9536653096469889                       0      6.4999999999999991
    24   2   2   0.0      6.1920816370587364     0.71499999999999997      6.4999999999999991
    25   2   2   0.0      1.2384163274117475                   2.145      6.4999999999999991
    26   2   2   0.0      2.4768326548234949      2.8599999999999999      6.4999999999999991
    27   2   2   0.0      3.7152489822352419                   2.145      6.4999999999999991
    28   2   2   0.0      4.9536653096469889      2.8599999999999999      6.4999999999999991
    29   2   2   0.0      6.1920816370587364                   2.145      6.4999999999999991
    30   2   2   0.0      7.4304979644704838      2.8599999999999999      6.4999999999999991
    31   2   2   0.0      2.4768326548234949                    4.29      6.4999999999999991
    32   2   2   0.0      3.7152489822352424      5.0049999999999999      6.4999999999999991
    33   2   2   0.0      4.9536653096469898                    4.29      6.4999999999999991
    34   2   2   0.0      6.1920816370587364      5.0049999999999999      6.4999999999999991
    35   2   2   0.0      7.4304979644704838                    4.29      6.4999999999999991
    36   2   2   0.0      8.6689142918822313      5.0049999999999999      6.4999999999999991
