configurations/AA_rect_8.lmp (written by ASE)      

8 	 atoms 
2 atom types 
0.0      4.29  xlo xhi 
0.0      2.4768326548234945 ylo yhi 
0.0      9.5 zlo zhi 
    0.0                       0.0                       0.0  xy xz yz 


Atoms 

1 1 1 0 0.0 0.0 3.0 
2 1 1 0 0.7150000000000001 1.238416327411747 3.0 
3 1 1 0 2.1449999999999996 1.238416327411747 3.0 
4 1 1 0 2.86 0.0 3.0 
5 2 2 0 0.0 0.0 6.499999999999999 
6 2 2 0 0.7150000000000001 1.238416327411747 6.499999999999999 
7 2 2 0 2.1449999999999996 1.238416327411747 6.499999999999999 
8 2 2 0 2.86 0.0 6.499999999999999 
