configurations/AA_rect_32.lmp (written by ASE) 

32 	 atoms 
2  atom types
0.0      8.5800000000000001  xlo xhi
0.0      4.9536653096469889  ylo yhi
0.0                     9.5  zlo zhi


Atoms 

     1   1   1   0.0                       0                       0                       3
     2   1   1   0.0     0.71500000000000008      1.2384163274117472                       3
     3   1   1   0.0                   2.145      1.2384163274117472                       3
     4   1   1   0.0      2.8599999999999999                       0                       3
     5   1   1   0.0      4.2899999999999991                       0                       3
     6   1   1   0.0       5.004999999999999      1.2384163274117472                       3
     7   1   1   0.0      6.4350000000000005      1.2384163274117472                       3
     8   1   1   0.0      7.1500000000000004                       0                       3
     9   1   1   0.0                       0       2.476832654823494                       3
    10   1   1   0.0     0.71500000000000008      3.7152489822352415                       3
    11   1   1   0.0                   2.145      3.7152489822352415                       3
    12   1   1   0.0      2.8599999999999999       2.476832654823494                       3
    13   1   1   0.0      4.2899999999999991       2.476832654823494                       3
    14   1   1   0.0       5.004999999999999      3.7152489822352415                       3
    15   1   1   0.0      6.4350000000000005      3.7152489822352415                       3
    16   1   1   0.0      7.1500000000000004       2.476832654823494                       3
    17   2   2   0.0                       0                       0      6.4999999999999991
    18   2   2   0.0     0.71500000000000008      1.2384163274117472      6.4999999999999991
    19   2   2   0.0                   2.145      1.2384163274117472      6.4999999999999991
    20   2   2   0.0      2.8599999999999999                       0      6.4999999999999991
    21   2   2   0.0      4.2899999999999991                       0      6.4999999999999991
    22   2   2   0.0       5.004999999999999      1.2384163274117472      6.4999999999999991
    23   2   2   0.0      6.4350000000000005      1.2384163274117472      6.4999999999999991
    24   2   2   0.0      7.1500000000000004                       0      6.4999999999999991
    25   2   2   0.0                       0       2.476832654823494      6.4999999999999991
    26   2   2   0.0     0.71500000000000008      3.7152489822352415      6.4999999999999991
    27   2   2   0.0                   2.145      3.7152489822352415      6.4999999999999991
    28   2   2   0.0      2.8599999999999999       2.476832654823494      6.4999999999999991
    29   2   2   0.0      4.2899999999999991       2.476832654823494      6.4999999999999991
    30   2   2   0.0       5.004999999999999      3.7152489822352415      6.4999999999999991
    31   2   2   0.0      6.4350000000000005      3.7152489822352415      6.4999999999999991
    32   2   2   0.0      7.1500000000000004       2.476832654823494      6.4999999999999991
