configurations/cube_working.lmp (written by ASE) 

8 	 atoms 
2  atom types
0.0                    10.5  xlo xhi
0.0                    10.5  ylo yhi
0.0                    10.5  zlo zhi


Atoms 

     1   1   1   0.0                     3.5                     3.5                     3.5
     2   1   1   0.0                       7                     3.5                     3.5
     3   1   1   0.0                     3.5                       7                     3.5
     4   1   1   0.0                       7                       7                     3.5
     5   2   2   0.0                     3.5                     3.5                     7.5
     6   2   2   0.0                       7                     3.5                     7.5
     7   2   2   0.0                     3.5                       7                     7.5
     8   2   2   0.0                       7                       7                     7.5
