configurations/AA.lmp (written by ASE) 

2 	 atoms 
1  atom types
0.0                    4.29  xlo xhi
0.0      2.4768326548234945  ylo yhi
0.0                     9.5  zlo zhi


Atoms 

     1   1   1   0.0                    2.15                    1.25                       3
     2   1   1   0.0                    2.15                    1.25                     6.5
