configurations/working_pbc.lmp (written by ASE) 

512 	 atoms 
2  atom types
0.0                   34.32  xlo xhi
0.0      19.814661238587956  ylo yhi
0.0                    27.5  zlo zhi


Atoms 

     1   1   1   0.0                       0                       0                      12
     2   1   1   0.0     0.71500000000000008      1.2384163274117472                      12
     3   1   1   0.0                   2.145      1.2384163274117472                      12
     4   1   1   0.0      2.8599999999999999                       0                      12
     5   1   1   0.0                    4.29                       0                      12
     6   1   1   0.0       5.004999999999999      1.2384163274117472                      12
     7   1   1   0.0      6.4350000000000005      1.2384163274117472                      12
     8   1   1   0.0      7.1500000000000004                       0                      12
     9   1   1   0.0      8.5800000000000001                       0                      12
    10   1   1   0.0      9.2949999999999999      1.2384163274117472                      12
    11   1   1   0.0                  10.725      1.2384163274117472                      12
    12   1   1   0.0                   11.44                       0                      12
    13   1   1   0.0      12.870000000000001                       0                      12
    14   1   1   0.0      13.584999999999999      1.2384163274117472                      12
    15   1   1   0.0      15.015000000000001      1.2384163274117472                      12
    16   1   1   0.0      15.729999999999999                       0                      12
    17   1   1   0.0      17.159999999999997                       0                      12
    18   1   1   0.0      17.874999999999996      1.2384163274117472                      12
    19   1   1   0.0                  19.305      1.2384163274117472                      12
    20   1   1   0.0      20.019999999999996                       0                      12
    21   1   1   0.0      21.449999999999999                       0                      12
    22   1   1   0.0      22.164999999999999      1.2384163274117472                      12
    23   1   1   0.0      23.594999999999995      1.2384163274117472                      12
    24   1   1   0.0      24.309999999999999                       0                      12
    25   1   1   0.0      25.740000000000002                       0                      12
    26   1   1   0.0      26.455000000000002      1.2384163274117472                      12
    27   1   1   0.0      27.885000000000002      1.2384163274117472                      12
    28   1   1   0.0      28.600000000000001                       0                      12
    29   1   1   0.0      30.030000000000001                       0                      12
    30   1   1   0.0      30.745000000000001      1.2384163274117472                      12
    31   1   1   0.0      32.175000000000004      1.2384163274117472                      12
    32   1   1   0.0      32.890000000000001                       0                      12
    33   1   1   0.0                       0      2.4768326548234945                      12
    34   1   1   0.0     0.71500000000000008      3.7152489822352415                      12
    35   1   1   0.0                   2.145      3.7152489822352415                      12
    36   1   1   0.0      2.8599999999999999      2.4768326548234945                      12
    37   1   1   0.0                    4.29      2.4768326548234945                      12
    38   1   1   0.0       5.004999999999999      3.7152489822352415                      12
    39   1   1   0.0      6.4350000000000005      3.7152489822352415                      12
    40   1   1   0.0      7.1500000000000004      2.4768326548234945                      12
    41   1   1   0.0      8.5800000000000001      2.4768326548234945                      12
    42   1   1   0.0      9.2949999999999999      3.7152489822352415                      12
    43   1   1   0.0                  10.725      3.7152489822352415                      12
    44   1   1   0.0                   11.44      2.4768326548234945                      12
    45   1   1   0.0      12.870000000000001      2.4768326548234945                      12
    46   1   1   0.0      13.584999999999999      3.7152489822352415                      12
    47   1   1   0.0      15.015000000000001      3.7152489822352415                      12
    48   1   1   0.0      15.729999999999999      2.4768326548234945                      12
    49   1   1   0.0      17.159999999999997      2.4768326548234945                      12
    50   1   1   0.0      17.874999999999996      3.7152489822352415                      12
    51   1   1   0.0                  19.305      3.7152489822352415                      12
    52   1   1   0.0      20.019999999999996      2.4768326548234945                      12
    53   1   1   0.0      21.449999999999999      2.4768326548234945                      12
    54   1   1   0.0      22.164999999999999      3.7152489822352415                      12
    55   1   1   0.0      23.594999999999995      3.7152489822352415                      12
    56   1   1   0.0      24.309999999999999      2.4768326548234945                      12
    57   1   1   0.0      25.740000000000002      2.4768326548234945                      12
    58   1   1   0.0      26.455000000000002      3.7152489822352415                      12
    59   1   1   0.0      27.885000000000002      3.7152489822352415                      12
    60   1   1   0.0      28.600000000000001      2.4768326548234945                      12
    61   1   1   0.0      30.030000000000001      2.4768326548234945                      12
    62   1   1   0.0      30.745000000000001      3.7152489822352415                      12
    63   1   1   0.0      32.175000000000004      3.7152489822352415                      12
    64   1   1   0.0      32.890000000000001      2.4768326548234945                      12
    65   1   1   0.0                       0      4.9536653096469889                      12
    66   1   1   0.0     0.71500000000000008      6.1920816370587373                      12
    67   1   1   0.0                   2.145      6.1920816370587373                      12
    68   1   1   0.0      2.8599999999999999      4.9536653096469889                      12
    69   1   1   0.0                    4.29      4.9536653096469889                      12
    70   1   1   0.0       5.004999999999999      6.1920816370587373                      12
    71   1   1   0.0      6.4350000000000005      6.1920816370587373                      12
    72   1   1   0.0      7.1500000000000004      4.9536653096469889                      12
    73   1   1   0.0      8.5800000000000001      4.9536653096469889                      12
    74   1   1   0.0      9.2949999999999999      6.1920816370587373                      12
    75   1   1   0.0                  10.725      6.1920816370587373                      12
    76   1   1   0.0                   11.44      4.9536653096469889                      12
    77   1   1   0.0      12.870000000000001      4.9536653096469889                      12
    78   1   1   0.0      13.584999999999999      6.1920816370587373                      12
    79   1   1   0.0      15.015000000000001      6.1920816370587373                      12
    80   1   1   0.0      15.729999999999999      4.9536653096469889                      12
    81   1   1   0.0      17.159999999999997      4.9536653096469889                      12
    82   1   1   0.0      17.874999999999996      6.1920816370587373                      12
    83   1   1   0.0                  19.305      6.1920816370587373                      12
    84   1   1   0.0      20.019999999999996      4.9536653096469889                      12
    85   1   1   0.0      21.449999999999999      4.9536653096469889                      12
    86   1   1   0.0      22.164999999999999      6.1920816370587373                      12
    87   1   1   0.0      23.594999999999995      6.1920816370587373                      12
    88   1   1   0.0      24.309999999999999      4.9536653096469889                      12
    89   1   1   0.0      25.740000000000002      4.9536653096469889                      12
    90   1   1   0.0      26.455000000000002      6.1920816370587373                      12
    91   1   1   0.0      27.885000000000002      6.1920816370587373                      12
    92   1   1   0.0      28.600000000000001      4.9536653096469889                      12
    93   1   1   0.0      30.030000000000001      4.9536653096469889                      12
    94   1   1   0.0      30.745000000000001      6.1920816370587373                      12
    95   1   1   0.0      32.175000000000004      6.1920816370587373                      12
    96   1   1   0.0      32.890000000000001      4.9536653096469889                      12
    97   1   1   0.0                       0      7.4304979644704829                      12
    98   1   1   0.0     0.71500000000000008      8.6689142918822295                      12
    99   1   1   0.0                   2.145      8.6689142918822295                      12
   100   1   1   0.0      2.8599999999999999      7.4304979644704829                      12
   101   1   1   0.0                    4.29      7.4304979644704829                      12
   102   1   1   0.0       5.004999999999999      8.6689142918822295                      12
   103   1   1   0.0      6.4350000000000005      8.6689142918822295                      12
   104   1   1   0.0      7.1500000000000004      7.4304979644704829                      12
   105   1   1   0.0      8.5800000000000001      7.4304979644704829                      12
   106   1   1   0.0      9.2949999999999999      8.6689142918822295                      12
   107   1   1   0.0                  10.725      8.6689142918822295                      12
   108   1   1   0.0                   11.44      7.4304979644704829                      12
   109   1   1   0.0      12.870000000000001      7.4304979644704829                      12
   110   1   1   0.0      13.584999999999999      8.6689142918822295                      12
   111   1   1   0.0      15.015000000000001      8.6689142918822295                      12
   112   1   1   0.0      15.729999999999999      7.4304979644704829                      12
   113   1   1   0.0      17.159999999999997      7.4304979644704829                      12
   114   1   1   0.0      17.874999999999996      8.6689142918822295                      12
   115   1   1   0.0                  19.305      8.6689142918822295                      12
   116   1   1   0.0      20.019999999999996      7.4304979644704829                      12
   117   1   1   0.0      21.449999999999999      7.4304979644704829                      12
   118   1   1   0.0      22.164999999999999      8.6689142918822295                      12
   119   1   1   0.0      23.594999999999995      8.6689142918822295                      12
   120   1   1   0.0      24.309999999999999      7.4304979644704829                      12
   121   1   1   0.0      25.740000000000002      7.4304979644704829                      12
   122   1   1   0.0      26.455000000000002      8.6689142918822295                      12
   123   1   1   0.0      27.885000000000002      8.6689142918822295                      12
   124   1   1   0.0      28.600000000000001      7.4304979644704829                      12
   125   1   1   0.0      30.030000000000001      7.4304979644704829                      12
   126   1   1   0.0      30.745000000000001      8.6689142918822295                      12
   127   1   1   0.0      32.175000000000004      8.6689142918822295                      12
   128   1   1   0.0      32.890000000000001      7.4304979644704829                      12
   129   1   1   0.0                       0      9.9073306192939761                      12
   130   1   1   0.0     0.71500000000000008      11.145746946705724                      12
   131   1   1   0.0                   2.145      11.145746946705724                      12
   132   1   1   0.0      2.8599999999999999      9.9073306192939761                      12
   133   1   1   0.0                    4.29      9.9073306192939761                      12
   134   1   1   0.0       5.004999999999999      11.145746946705724                      12
   135   1   1   0.0      6.4350000000000005      11.145746946705724                      12
   136   1   1   0.0      7.1500000000000004      9.9073306192939761                      12
   137   1   1   0.0      8.5800000000000001      9.9073306192939761                      12
   138   1   1   0.0      9.2949999999999999      11.145746946705724                      12
   139   1   1   0.0                  10.725      11.145746946705724                      12
   140   1   1   0.0                   11.44      9.9073306192939761                      12
   141   1   1   0.0      12.870000000000001      9.9073306192939761                      12
   142   1   1   0.0      13.584999999999999      11.145746946705724                      12
   143   1   1   0.0      15.015000000000001      11.145746946705724                      12
   144   1   1   0.0      15.729999999999999      9.9073306192939761                      12
   145   1   1   0.0      17.159999999999997      9.9073306192939761                      12
   146   1   1   0.0      17.874999999999996      11.145746946705724                      12
   147   1   1   0.0                  19.305      11.145746946705724                      12
   148   1   1   0.0      20.019999999999996      9.9073306192939761                      12
   149   1   1   0.0      21.449999999999999      9.9073306192939761                      12
   150   1   1   0.0      22.164999999999999      11.145746946705724                      12
   151   1   1   0.0      23.594999999999995      11.145746946705724                      12
   152   1   1   0.0      24.309999999999999      9.9073306192939761                      12
   153   1   1   0.0      25.740000000000002      9.9073306192939761                      12
   154   1   1   0.0      26.455000000000002      11.145746946705724                      12
   155   1   1   0.0      27.885000000000002      11.145746946705724                      12
   156   1   1   0.0      28.600000000000001      9.9073306192939761                      12
   157   1   1   0.0      30.030000000000001      9.9073306192939761                      12
   158   1   1   0.0      30.745000000000001      11.145746946705724                      12
   159   1   1   0.0      32.175000000000004      11.145746946705724                      12
   160   1   1   0.0      32.890000000000001      9.9073306192939761                      12
   161   1   1   0.0                       0      12.384163274117475                      12
   162   1   1   0.0     0.71500000000000008      13.622579601529219                      12
   163   1   1   0.0                   2.145      13.622579601529219                      12
   164   1   1   0.0      2.8599999999999999      12.384163274117475                      12
   165   1   1   0.0                    4.29      12.384163274117475                      12
   166   1   1   0.0       5.004999999999999      13.622579601529219                      12
   167   1   1   0.0      6.4350000000000005      13.622579601529219                      12
   168   1   1   0.0      7.1500000000000004      12.384163274117475                      12
   169   1   1   0.0      8.5800000000000001      12.384163274117475                      12
   170   1   1   0.0      9.2949999999999999      13.622579601529219                      12
   171   1   1   0.0                  10.725      13.622579601529219                      12
   172   1   1   0.0                   11.44      12.384163274117475                      12
   173   1   1   0.0      12.870000000000001      12.384163274117475                      12
   174   1   1   0.0      13.584999999999999      13.622579601529219                      12
   175   1   1   0.0      15.015000000000001      13.622579601529219                      12
   176   1   1   0.0      15.729999999999999      12.384163274117475                      12
   177   1   1   0.0      17.159999999999997      12.384163274117475                      12
   178   1   1   0.0      17.874999999999996      13.622579601529219                      12
   179   1   1   0.0                  19.305      13.622579601529219                      12
   180   1   1   0.0      20.019999999999996      12.384163274117475                      12
   181   1   1   0.0      21.449999999999999      12.384163274117475                      12
   182   1   1   0.0      22.164999999999999      13.622579601529219                      12
   183   1   1   0.0      23.594999999999995      13.622579601529219                      12
   184   1   1   0.0      24.309999999999999      12.384163274117475                      12
   185   1   1   0.0      25.740000000000002      12.384163274117475                      12
   186   1   1   0.0      26.455000000000002      13.622579601529219                      12
   187   1   1   0.0      27.885000000000002      13.622579601529219                      12
   188   1   1   0.0      28.600000000000001      12.384163274117475                      12
   189   1   1   0.0      30.030000000000001      12.384163274117475                      12
   190   1   1   0.0      30.745000000000001      13.622579601529219                      12
   191   1   1   0.0      32.175000000000004      13.622579601529219                      12
   192   1   1   0.0      32.890000000000001      12.384163274117475                      12
   193   1   1   0.0                       0      14.860995928940966                      12
   194   1   1   0.0     0.71500000000000008      16.099412256352718                      12
   195   1   1   0.0                   2.145      16.099412256352718                      12
   196   1   1   0.0      2.8599999999999999      14.860995928940966                      12
   197   1   1   0.0                    4.29      14.860995928940966                      12
   198   1   1   0.0       5.004999999999999      16.099412256352718                      12
   199   1   1   0.0      6.4350000000000005      16.099412256352718                      12
   200   1   1   0.0      7.1500000000000004      14.860995928940966                      12
   201   1   1   0.0      8.5800000000000001      14.860995928940966                      12
   202   1   1   0.0      9.2949999999999999      16.099412256352718                      12
   203   1   1   0.0                  10.725      16.099412256352718                      12
   204   1   1   0.0                   11.44      14.860995928940966                      12
   205   1   1   0.0      12.870000000000001      14.860995928940966                      12
   206   1   1   0.0      13.584999999999999      16.099412256352718                      12
   207   1   1   0.0      15.015000000000001      16.099412256352718                      12
   208   1   1   0.0      15.729999999999999      14.860995928940966                      12
   209   1   1   0.0      17.159999999999997      14.860995928940966                      12
   210   1   1   0.0      17.874999999999996      16.099412256352718                      12
   211   1   1   0.0                  19.305      16.099412256352718                      12
   212   1   1   0.0      20.019999999999996      14.860995928940966                      12
   213   1   1   0.0      21.449999999999999      14.860995928940966                      12
   214   1   1   0.0      22.164999999999999      16.099412256352718                      12
   215   1   1   0.0      23.594999999999995      16.099412256352718                      12
   216   1   1   0.0      24.309999999999999      14.860995928940966                      12
   217   1   1   0.0      25.740000000000002      14.860995928940966                      12
   218   1   1   0.0      26.455000000000002      16.099412256352718                      12
   219   1   1   0.0      27.885000000000002      16.099412256352718                      12
   220   1   1   0.0      28.600000000000001      14.860995928940966                      12
   221   1   1   0.0      30.030000000000001      14.860995928940966                      12
   222   1   1   0.0      30.745000000000001      16.099412256352718                      12
   223   1   1   0.0      32.175000000000004      16.099412256352718                      12
   224   1   1   0.0      32.890000000000001      14.860995928940966                      12
   225   1   1   0.0                       0      17.337828583764463                      12
   226   1   1   0.0     0.71500000000000008      18.576244911176214                      12
   227   1   1   0.0                   2.145      18.576244911176214                      12
   228   1   1   0.0      2.8599999999999999      17.337828583764463                      12
   229   1   1   0.0                    4.29      17.337828583764463                      12
   230   1   1   0.0       5.004999999999999      18.576244911176214                      12
   231   1   1   0.0      6.4350000000000005      18.576244911176214                      12
   232   1   1   0.0      7.1500000000000004      17.337828583764463                      12
   233   1   1   0.0      8.5800000000000001      17.337828583764463                      12
   234   1   1   0.0      9.2949999999999999      18.576244911176214                      12
   235   1   1   0.0                  10.725      18.576244911176214                      12
   236   1   1   0.0                   11.44      17.337828583764463                      12
   237   1   1   0.0      12.870000000000001      17.337828583764463                      12
   238   1   1   0.0      13.584999999999999      18.576244911176214                      12
   239   1   1   0.0      15.015000000000001      18.576244911176214                      12
   240   1   1   0.0      15.729999999999999      17.337828583764463                      12
   241   1   1   0.0      17.159999999999997      17.337828583764463                      12
   242   1   1   0.0      17.874999999999996      18.576244911176214                      12
   243   1   1   0.0                  19.305      18.576244911176214                      12
   244   1   1   0.0      20.019999999999996      17.337828583764463                      12
   245   1   1   0.0      21.449999999999999      17.337828583764463                      12
   246   1   1   0.0      22.164999999999999      18.576244911176214                      12
   247   1   1   0.0      23.594999999999995      18.576244911176214                      12
   248   1   1   0.0      24.309999999999999      17.337828583764463                      12
   249   1   1   0.0      25.740000000000002      17.337828583764463                      12
   250   1   1   0.0      26.455000000000002      18.576244911176214                      12
   251   1   1   0.0      27.885000000000002      18.576244911176214                      12
   252   1   1   0.0      28.600000000000001      17.337828583764463                      12
   253   1   1   0.0      30.030000000000001      17.337828583764463                      12
   254   1   1   0.0      30.745000000000001      18.576244911176214                      12
   255   1   1   0.0      32.175000000000004      18.576244911176214                      12
   256   1   1   0.0      32.890000000000001      17.337828583764463                      12
   257   2   2   0.0                       0                       0      15.499999999999998
   258   2   2   0.0     0.71500000000000008      1.2384163274117472      15.499999999999998
   259   2   2   0.0                   2.145      1.2384163274117472      15.499999999999998
   260   2   2   0.0      2.8599999999999999                       0      15.499999999999998
   261   2   2   0.0                    4.29                       0      15.499999999999998
   262   2   2   0.0       5.004999999999999      1.2384163274117472      15.499999999999998
   263   2   2   0.0      6.4350000000000005      1.2384163274117472      15.499999999999998
   264   2   2   0.0      7.1500000000000004                       0      15.499999999999998
   265   2   2   0.0      8.5800000000000001                       0      15.499999999999998
   266   2   2   0.0      9.2949999999999999      1.2384163274117472      15.499999999999998
   267   2   2   0.0                  10.725      1.2384163274117472      15.499999999999998
   268   2   2   0.0                   11.44                       0      15.499999999999998
   269   2   2   0.0      12.870000000000001                       0      15.499999999999998
   270   2   2   0.0      13.584999999999999      1.2384163274117472      15.499999999999998
   271   2   2   0.0      15.015000000000001      1.2384163274117472      15.499999999999998
   272   2   2   0.0      15.729999999999999                       0      15.499999999999998
   273   2   2   0.0      17.159999999999997                       0      15.499999999999998
   274   2   2   0.0      17.874999999999996      1.2384163274117472      15.499999999999998
   275   2   2   0.0                  19.305      1.2384163274117472      15.499999999999998
   276   2   2   0.0      20.019999999999996                       0      15.499999999999998
   277   2   2   0.0      21.449999999999999                       0      15.499999999999998
   278   2   2   0.0      22.164999999999999      1.2384163274117472      15.499999999999998
   279   2   2   0.0      23.594999999999995      1.2384163274117472      15.499999999999998
   280   2   2   0.0      24.309999999999999                       0      15.499999999999998
   281   2   2   0.0      25.740000000000002                       0      15.499999999999998
   282   2   2   0.0      26.455000000000002      1.2384163274117472      15.499999999999998
   283   2   2   0.0      27.885000000000002      1.2384163274117472      15.499999999999998
   284   2   2   0.0      28.600000000000001                       0      15.499999999999998
   285   2   2   0.0      30.030000000000001                       0      15.499999999999998
   286   2   2   0.0      30.745000000000001      1.2384163274117472      15.499999999999998
   287   2   2   0.0      32.175000000000004      1.2384163274117472      15.499999999999998
   288   2   2   0.0      32.890000000000001                       0      15.499999999999998
   289   2   2   0.0                       0      2.4768326548234945      15.499999999999998
   290   2   2   0.0     0.71500000000000008      3.7152489822352415      15.499999999999998
   291   2   2   0.0                   2.145      3.7152489822352415      15.499999999999998
   292   2   2   0.0      2.8599999999999999      2.4768326548234945      15.499999999999998
   293   2   2   0.0                    4.29      2.4768326548234945      15.499999999999998
   294   2   2   0.0       5.004999999999999      3.7152489822352415      15.499999999999998
   295   2   2   0.0      6.4350000000000005      3.7152489822352415      15.499999999999998
   296   2   2   0.0      7.1500000000000004      2.4768326548234945      15.499999999999998
   297   2   2   0.0      8.5800000000000001      2.4768326548234945      15.499999999999998
   298   2   2   0.0      9.2949999999999999      3.7152489822352415      15.499999999999998
   299   2   2   0.0                  10.725      3.7152489822352415      15.499999999999998
   300   2   2   0.0                   11.44      2.4768326548234945      15.499999999999998
   301   2   2   0.0      12.870000000000001      2.4768326548234945      15.499999999999998
   302   2   2   0.0      13.584999999999999      3.7152489822352415      15.499999999999998
   303   2   2   0.0      15.015000000000001      3.7152489822352415      15.499999999999998
   304   2   2   0.0      15.729999999999999      2.4768326548234945      15.499999999999998
   305   2   2   0.0      17.159999999999997      2.4768326548234945      15.499999999999998
   306   2   2   0.0      17.874999999999996      3.7152489822352415      15.499999999999998
   307   2   2   0.0                  19.305      3.7152489822352415      15.499999999999998
   308   2   2   0.0      20.019999999999996      2.4768326548234945      15.499999999999998
   309   2   2   0.0      21.449999999999999      2.4768326548234945      15.499999999999998
   310   2   2   0.0      22.164999999999999      3.7152489822352415      15.499999999999998
   311   2   2   0.0      23.594999999999995      3.7152489822352415      15.499999999999998
   312   2   2   0.0      24.309999999999999      2.4768326548234945      15.499999999999998
   313   2   2   0.0      25.740000000000002      2.4768326548234945      15.499999999999998
   314   2   2   0.0      26.455000000000002      3.7152489822352415      15.499999999999998
   315   2   2   0.0      27.885000000000002      3.7152489822352415      15.499999999999998
   316   2   2   0.0      28.600000000000001      2.4768326548234945      15.499999999999998
   317   2   2   0.0      30.030000000000001      2.4768326548234945      15.499999999999998
   318   2   2   0.0      30.745000000000001      3.7152489822352415      15.499999999999998
   319   2   2   0.0      32.175000000000004      3.7152489822352415      15.499999999999998
   320   2   2   0.0      32.890000000000001      2.4768326548234945      15.499999999999998